data0.lmp (written by ASE) 

1002 	 atoms 
3  atom types
0.0       35.22820204664032  xlo xhi
0.0       35.22820204664032  ylo yhi
0.0       35.22820204664032  zlo zhi


Atoms 

1 1 0.087397900000000001 28.5976 33.508400000000002
2 1 4.0004999999999997 3.7809400000000002 35.428199999999997
3 1 19.0505 0.61956599999999995 28.664999999999999
4 1 30.249500000000001 9.1919199999999996 0.79091199999999995
5 1 7.0040800000000001 30.338899999999999 8.6244599999999991
6 1 1.0852599999999999 1.05104 7.2027000000000001
7 1 32.938499999999998 10.8066 14.3666
8 1 32.869700000000002 3.9453999999999998 1.42458
9 1 31.851099999999999 2.89778 16.790700000000001
10 1 7.7018599999999999 3.54962 28.728100000000001
11 1 2.29949 0.33494200000000002 32.441899999999997
12 1 26.853300000000001 4.5120500000000003 26.768699999999999
13 1 33.430300000000003 32.005099999999999 25.674800000000001
14 1 9.4943000000000008 7.43588 32.233800000000002
15 1 20.0791 32.863900000000001 29.621700000000001
16 1 7.7720099999999999 31.664000000000001 29.0594
17 1 4.4351700000000003 5.6790000000000003 6.86348
18 1 7.1442699999999997 8.6069800000000001 2.1297000000000001
19 1 30.145399999999999 7.6536600000000004 31.502800000000001
20 1 17.819800000000001 9.6483799999999995 0.67913299999999999
21 1 0.39039699999999999 34.370600000000003 15.021599999999999
22 1 14.019600000000001 6.3100899999999998 12.547000000000001
23 1 1.70123 28.755199999999999 8.9321099999999998
24 1 33.0411 16.852 14.453799999999999
25 1 2.5560800000000001 18.160399999999999 20.0487
26 1 5.7894300000000003 10.8431 22.621300000000002
27 1 4.7791100000000002 4.2145000000000001 28.478200000000001
28 1 3.2896700000000001 34.195 24.305900000000001
29 1 35.3827 16.291 26.3674
30 1 7.0603800000000003 30.008099999999999 25.2638
31 1 5.3837999999999999 31.3919 30.9879
32 1 5.2410800000000002 0.38933800000000002 27.580100000000002
33 1 1.8583799999999999 1.70095 28.690200000000001
34 1 10.722099999999999 4.8074899999999996 30.065000000000001
35 1 34.422499999999999 6.0959199999999996 6.95946
36 1 4.5775399999999999 12.835000000000001 9.6674600000000002
37 1 0.62944699999999998 11.625 3.0613100000000002
38 1 5.6821200000000003 18.914999999999999 14.346500000000001
39 1 7.27135 12.4603 4.8353299999999999
40 1 12.5745 6.8555000000000001 9.1396499999999996
41 1 0.95302299999999995 11.503 11.887600000000001
42 1 1.63147 15.824 29.164999999999999
43 1 1.9951300000000001 1.0768500000000001 17.389500000000002
44 1 5.3053800000000004 12.1487 33.572499999999998
45 1 2.3190200000000001 6.8185500000000001 34.217799999999997
46 1 12.175800000000001 24.3367 20.6967
47 1 0.71047199999999999 32.0824 34.713200000000001
48 1 4.78437 5.4380100000000002 31.284700000000001
49 1 13.591200000000001 11.6273 21.9832
50 1 32.456699999999998 16.067499999999999 30.853300000000001
51 1 9.1404700000000005 32.8889 34.842799999999997
52 1 32.222900000000003 13.3719 7.8992199999999997
53 1 34.777700000000003 9.5772200000000005 5.30002
54 1 5.2504099999999996 11.395899999999999 2.63748
55 1 1.5318400000000001 2.5332400000000002 4.4199999999999999
56 1 3.17828 7.1593200000000001 9.6718600000000006
57 1 33.105899999999998 12.6722 18.818100000000001
58 1 32.122799999999998 12.096500000000001 10.8156
59 1 5.1860099999999996 6.3805199999999997 17.823699999999999
60 1 30.8871 23.185600000000001 17.922499999999999
61 1 32.636299999999999 22.4114 15.222099999999999
62 1 32.067300000000003 22.602799999999998 34.707999999999998
63 1 3.2219199999999999 14.153499999999999 19.851800000000001
64 1 33.716999999999999 8.6669499999999999 17.907499999999999
65 1 28.867599999999999 2.1549100000000001 31.004999999999999
66 1 4.4379 7.2566199999999998 21.7258
67 1 31.746400000000001 9.2540999999999993 4.3442999999999996
68 1 3.5097999999999998 5.7955100000000002 3.1354899999999999
69 1 24.685199999999998 11.6873 0.66423299999999996
70 1 20.762699999999999 7.4022399999999999 2.6133600000000001
71 1 27.332699999999999 22.0304 7.7417100000000003
72 1 31.548200000000001 28.2774 16.628499999999999
73 1 29.1465 18.536300000000001 15.606
74 1 4.5559099999999999 16.6191 24.918199999999999
75 1 30.998999999999999 15.0718 23.810300000000002
76 1 27.406199999999998 28.657299999999999 24.033200000000001
77 1 34.421700000000001 24.168600000000001 25.429099999999998
78 1 2.15612 13.025499999999999 27.958500000000001
79 1 0.89545799999999998 6.6566900000000002 24.291
80 1 1.9442900000000001 19.9072 34.419600000000003
81 1 27.372699999999998 15.224299999999999 34.772399999999998
82 1 30.605499999999999 22.773700000000002 2.9565000000000001
83 1 30.0046 20.457999999999998 34.299700000000001
84 1 0.32944400000000001 22.603999999999999 14.4268
85 1 28.766999999999999 23.012799999999999 32.757100000000001
86 1 4.0552999999999999 30.008400000000002 10.8988
87 1 28.265899999999998 21.096800000000002 18.932700000000001
88 1 32.524299999999997 24.402799999999999 13.036899999999999
89 1 31.360700000000001 29.706600000000002 13.0746
90 1 0.072623199999999999 27.517700000000001 21.025700000000001
91 1 2.6791399999999999 14.3284 23.149899999999999
92 1 33.089100000000002 19.3096 30.451499999999999
93 1 26.4938 14.378399999999999 28.7943
94 1 30.0274 33.279000000000003 7.0448199999999996
95 1 32.8675 11.258900000000001 2.1355300000000002
96 1 30.183599999999998 19.249500000000001 3.7717399999999999
97 1 29.174700000000001 19.6798 11.2791
98 1 28.110099999999999 28.659199999999998 7.3319799999999997
99 1 3.9856400000000001 28.950299999999999 6.8657599999999999
100 1 30.9557 33.821199999999997 10.1145
101 1 1.3577900000000001 21.412500000000001 8.0159500000000001
102 1 31.9544 21.911799999999999 10.5648
103 1 32.192999999999998 24.4466 31.444900000000001
104 1 3.75536 29.3094 15.1812
105 1 4.9842000000000004 22.7393 26.010899999999999
106 1 32.388399999999997 4.6666499999999997 14.0235
107 1 33.442100000000003 19.4146 25.691099999999999
108 1 21.490600000000001 26.770199999999999 32.662199999999999
109 1 27.124600000000001 18.201000000000001 28.833300000000001
110 1 21.348800000000001 28.7502 7.9439200000000003
111 1 1.5952999999999999 8.1758199999999999 2.3981300000000001
112 1 28.331900000000001 23.531400000000001 0.59203399999999995
113 1 1.98865 24.7973 12.3484
114 1 6.3005000000000004 32.886000000000003 2.1587299999999998
115 1 3.6545299999999998 26.916599999999999 10.5152
116 1 11.8087 2.9996900000000002 11.7751
117 1 5.5785 3.4405100000000002 16.326699999999999
118 1 7.88354 28.737300000000001 15.562900000000001
119 1 28.008800000000001 33.318399999999997 20.084099999999999
120 1 4.6406000000000001 3.7840799999999999 19.600100000000001
121 1 28.7806 4.60717 29.151900000000001
122 1 33.980600000000003 4.9250100000000003 22.5885
123 1 4.66167 2.25502 31.360499999999998
124 1 32.435000000000002 31.0898 33.558199999999999
125 1 31.172499999999999 6.8366300000000004 28.6782
126 1 7.6833600000000004 2.8488199999999999 22.618500000000001
127 1 32.923099999999998 27.754000000000001 30.783300000000001
128 1 7.1875600000000004 5.3851000000000004 33.321899999999999
129 1 7.5027200000000001 17.6326 2.21428
130 1 34.645499999999998 33.8003 29.331399999999999
131 1 32.689900000000002 25.3887 5.9670699999999997
132 1 9.7957000000000001 4.4030300000000002 13.6373
133 1 31.146899999999999 5.8330299999999999 8.3143399999999996
134 1 6.3130699999999997 33.874200000000002 9.7973199999999991
135 1 33.535800000000002 34.2393 17.483899999999998
136 1 33.210000000000001 0.85198499999999999 20.303599999999999
137 1 32.094799999999999 34.647500000000001 14.888500000000001
138 1 6.5186700000000002 29.6098 19.5901
139 1 5.9537899999999997 2.61564 25.2364
140 1 1.80322 25.7119 34.695500000000003
141 1 2.9823499999999998 3.16248 26.174299999999999
142 1 9.4635599999999993 2.1482700000000001 32.005400000000002
143 1 2.2949700000000002 22.990100000000002 33.184899999999999
144 1 17.495699999999999 34.849899999999998 7.4538799999999998
145 1 11.638500000000001 9.1654400000000003 26.859200000000001
146 1 10.758699999999999 34.254300000000001 1.90951
147 1 34.130000000000003 0.28142600000000001 34.4163
148 1 13.1609 11.9072 0.39374900000000002
149 1 11.5115 2.60629 6.6256199999999996
150 1 3.98908 4.1913900000000002 9.6533800000000003
151 1 3.3992200000000001 31.779199999999999 13.3787
152 1 13.348100000000001 10.068099999999999 12.469200000000001
153 1 15.931100000000001 4.4966100000000004 7.1622300000000001
154 1 8.3940400000000004 34.263800000000003 11.994400000000001
155 1 8.6181699999999992 31.763000000000002 21.187899999999999
156 1 31.034800000000001 10.9572 20.103999999999999
157 1 12.574299999999999 6.4207400000000003 27.849499999999999
158 1 7.68614 34.069600000000001 26.721599999999999
159 1 22.471299999999999 4.8363800000000001 3.3051699999999999
160 1 0.75620399999999999 3.2443300000000002 1.3242700000000001
161 1 12.150700000000001 11.4521 29.248799999999999
162 1 15.0221 15.8392 33.279800000000002
163 1 10.1503 5.0888499999999999 33.913400000000003
164 1 13.758800000000001 33.846299999999999 6.31677
165 1 6.9198300000000001 32.1145 14.6759
166 1 9.8538499999999996 0.95410700000000004 4.2985600000000002
167 1 8.8205200000000001 3.6568100000000001 25.6706
168 1 1.0365500000000001 12.440300000000001 21.264800000000001
169 1 9.1440599999999996 10.422599999999999 7.3149100000000002
170 1 10.016999999999999 14.4049 19.317599999999999
171 1 3.5102099999999998 8.87988 24.550599999999999
172 1 6.9718400000000003 20.209599999999998 18.147099999999998
173 1 13.2102 13.281000000000001 18.674499999999998
174 1 11.2743 2.2681200000000001 28.380600000000001
175 1 4.9251899999999997 9.7086799999999993 17.930900000000001
176 1 12.4841 13.779999999999999 24.513999999999999
177 1 12.6808 7.3240800000000004 23.273399999999999
178 1 9.7932400000000008 20.2104 3.9765999999999999
179 1 11.4055 15.839499999999999 31.756599999999999
180 1 7.7144700000000004 13.1174 10.5839
181 1 2.7455500000000002 12.9793 5.9378900000000003
182 1 7.6011800000000003 14.755100000000001 14.251099999999999
183 1 8.2883999999999993 9.1703399999999995 15.3066
184 1 13.600899999999999 17.5547 20.255400000000002
185 1 3.2159300000000002 15.9793 14.32
186 1 4.7915999999999999 16.972899999999999 30.6892
187 1 30.299900000000001 17.513100000000001 26.555900000000001
188 1 19.273499999999999 18.026499999999999 23.528700000000001
189 1 6.8752399999999998 21.922899999999998 31.280200000000001
190 1 4.42455 11.8935 25.8477
191 1 4.9129899999999997 4.1830800000000004 22.796900000000001
192 1 3.28531 13.0944 31.384699999999999
193 1 2.8991899999999999 9.9123400000000004 29.16
194 1 1.40282 12.0901 17.884899999999998
195 1 5.9267799999999999 12.010400000000001 16.111499999999999
196 1 33.013300000000001 17.6997 10.7189
197 1 35.037799999999997 6.3917200000000003 0.79033399999999998
198 1 10.216699999999999 28.7408 9.9539399999999993
199 1 3.7281499999999999 10.025700000000001 10.893800000000001
200 1 5.8277099999999997 24.352599999999999 23.223099999999999
201 1 7.8729100000000001 22.2349 25.301100000000002
202 1 14.1791 17.894100000000002 16.037800000000001
203 1 16.215299999999999 16.119700000000002 23.825600000000001
204 1 1.4984299999999999 18.9754 25.6953
205 1 33.574300000000001 12.706099999999999 27.164200000000001
206 1 0.15559899999999999 28.757999999999999 1.4892700000000001
207 1 34.443800000000003 9.3051200000000005 26.6874
208 1 1.4802999999999999 23.108799999999999 27.619700000000002
209 1 28.002600000000001 22.3476 28.313500000000001
210 1 31.661799999999999 24.793399999999998 9.0073000000000008
211 1 1.02233 13.322100000000001 34.204099999999997
212 1 29.636099999999999 33.1708 26.790700000000001
213 1 1.81924 16.068899999999999 10.0002
214 1 2.6757599999999999 10.478999999999999 7.7376199999999997
215 1 33.189999999999998 21.265899999999998 3.9660600000000001
216 1 8.6100499999999993 24.438600000000001 21.707999999999998
217 1 10.612299999999999 17.400300000000001 28.286899999999999
218 1 1.9079900000000001 24.520900000000001 23.444500000000001
219 1 1.89757 24.800699999999999 16.069199999999999
220 1 3.9916100000000001 16.596299999999999 17.2394
221 1 12.919700000000001 20.254999999999999 28.047699999999999
222 1 3.6521300000000001 33.678699999999999 29.944400000000002
223 1 12.293200000000001 0.92654700000000001 31.174299999999999
224 1 4.8526400000000001 24.380199999999999 32.133899999999997
225 1 34.607700000000001 15.7746 33.676200000000001
226 1 6.9038399999999998 2.1862499999999998 33.9788
227 1 9.0602499999999999 21.0519 15.5779
228 1 19.011500000000002 3.0452499999999998 33.418100000000003
229 1 0.54170499999999999 26.441400000000002 3.6775500000000001
230 1 7.6065300000000002 31.248699999999999 11.5677
231 1 3.90124 27.930800000000001 2.4692400000000001
232 1 6.2096600000000004 27.584 22.592400000000001
233 1 1.6105799999999999 33.735999999999997 21.863900000000001
234 1 1.6984699999999999 28.187899999999999 28.157299999999999
235 1 5.1672000000000002 33.246200000000002 20.149899999999999
236 1 9.5167300000000008 21.131799999999998 27.602599999999999
237 1 1.1561600000000001 27.071200000000001 25.010100000000001
238 1 4.6510400000000001 24.781400000000001 0.63301600000000002
239 1 30.892399999999999 20.935199999999998 25.118500000000001
240 1 23.779 23.898499999999999 2.2785099999999998
241 1 1.0666899999999999 31.6023 6.9825499999999998
242 1 16.6219 34.888399999999997 0.68269899999999994
243 1 5.2442399999999996 7.8539399999999997 35.038200000000003
244 1 10.984999999999999 4.20106 3.07517
245 1 4.9991000000000003 28.315000000000001 33.844000000000001
246 1 14.6913 1.37018 7.9430500000000004
247 1 10.1173 29.280100000000001 5.8952799999999996
248 1 4.42584 31.1829 17.607099999999999
249 1 30.200399999999998 30.5943 4.8734799999999998
250 1 28.194600000000001 10.944900000000001 12.614699999999999
251 1 0.47420699999999999 24.6601 18.703700000000001
252 1 31.3475 1.60503 29.439499999999999
253 1 34.198700000000002 1.8725700000000001 24.299199999999999
254 1 7.3522600000000002 24.248000000000001 28.7927
255 1 12.0184 31.228300000000001 32.8339
256 1 5.3553499999999996 2.3604500000000002 4.9577099999999996
257 1 34.670699999999997 29.555399999999999 4.7247500000000002
258 1 20.589099999999998 27.2257 2.3051200000000001
259 1 2.38991 14.853400000000001 1.65987
260 1 3.17333 33.111899999999999 8.4698499999999992
261 1 1.89415 34.067700000000002 4.2941900000000004
262 1 15.2095 29.533200000000001 2.4023699999999999
263 1 14.5884 34.466900000000003 16.423100000000002
264 1 13.289999999999999 1.8391 14.571400000000001
265 1 14.218999999999999 29.7468 9.3340399999999999
266 1 12.0184 2.5833499999999998 18.881499999999999
267 1 13.7904 30.011700000000001 22.4071
268 1 8.9688300000000005 -0.17672599999999999 20.724299999999999
269 1 30.390499999999999 28.249600000000001 23.8232
270 1 7.4360499999999998 35.296700000000001 15.6866
271 1 9.1895600000000002 30.954000000000001 2.0882399999999999
272 1 6.9665299999999997 35.118299999999998 23.8308
273 1 1.48302 26.2407 7.1836000000000002
274 1 17.770199999999999 8.1770600000000009 6.3817399999999997
275 1 10.545999999999999 32.949100000000001 4.9872899999999998
276 1 1.7023699999999999 18.548100000000002 31.218
277 1 7.2726800000000003 4.7757899999999998 8.1332500000000003
278 1 18.683800000000002 11.9535 16.986999999999998
279 1 13.110300000000001 0.311197 10.5649
280 1 3.0668099999999998 0.77368199999999998 9.8770600000000002
281 1 31.9742 13.717700000000001 13.8972
282 1 19.582000000000001 7.2019700000000002 18.529
283 1 11.3773 33.555999999999997 22.192
284 1 9.2647399999999998 10.538399999999999 24.836600000000001
285 1 31.709900000000001 9.8383000000000003 29.182600000000001
286 1 1.5432399999999999 30.4071 19.249700000000001
287 1 12.2227 5.1074200000000003 21.0412
288 1 16.3369 14.0936 26.4009
289 1 0.45605600000000002 17.553899999999999 2.8275700000000001
290 1 21.331900000000001 19.277799999999999 31.1722
291 1 19.482399999999998 9.9877099999999999 9.6746099999999995
292 1 8.7742199999999997 15.0558 5.1182999999999996
293 1 10.681699999999999 15.903600000000001 14.3033
294 1 6.6834300000000004 14.6967 7.6724699999999997
295 1 27.4575 4.31759 12.170400000000001
296 1 19.932400000000001 7.4065700000000003 11.6198
297 1 6.6870399999999997 12.9359 19.6295
298 1 15.398 6.6948699999999999 18.046399999999998
299 1 9.5745799999999992 10.153499999999999 21.8627
300 1 14.9444 4.7625599999999997 14.9617
301 1 8.8228299999999997 26.660599999999999 24.257300000000001
302 1 12.3909 14.6576 28.285299999999999
303 1 11.9254 24.598099999999999 25.526900000000001
304 1 9.3639500000000009 13.0487 23.068200000000001
305 1 2.3320400000000001 10.3592 0.392461
306 1 2.1539700000000002 19.875599999999999 12.3446
307 1 10.665699999999999 11.3667 32.8874
308 1 26.368500000000001 25 3.3476400000000002
309 1 34.7943 23.2376 6.2091200000000004
310 1 13.773400000000001 27.0001 23.247
311 1 7.4532600000000002 7.2711399999999999 9.7313500000000008
312 1 5.2139499999999996 21.864799999999999 15.2255
313 1 6.7110200000000004 11.234 13.1221
314 1 13.7707 12.889099999999999 14.535299999999999
315 1 7.0223699999999996 15.498799999999999 17.593900000000001
316 1 12.1471 5.5667299999999997 17.675899999999999
317 1 9.13903 5.31663 20.601900000000001
318 1 24.447500000000002 12.8926 22.887
319 1 15.7867 19.800999999999998 31.241499999999998
320 1 32.971299999999999 6.8455399999999997 25.063600000000001
321 1 1.4257899999999999 11.023099999999999 25.2302
322 1 1.21665 21.453199999999999 4.3974299999999999
323 1 7.1725599999999998 26.777999999999999 1.81366
324 1 3.6706300000000001 19.5001 28.179300000000001
325 1 1.4751300000000001 18.3215 5.6952800000000003
326 1 8.9785199999999996 26.531700000000001 7.3164400000000001
327 1 6.2233299999999998 5.0618100000000004 11.7446
328 1 16.188300000000002 14.190200000000001 11.048299999999999
329 1 7.3953199999999999 15.2318 25.1599
330 1 8.6838300000000004 12.434799999999999 30.163399999999999
331 1 5.5195499999999997 16.523199999999999 34.509799999999998
332 1 4.87805 21.939 19.9468
333 1 1.8976900000000001 8.9392499999999995 20.116299999999999
334 1 18.9315 18.123999999999999 29.298200000000001
335 1 11.274900000000001 17.813199999999998 9.6498500000000007
336 1 30.3065 12.8727 1.9242600000000001
337 1 2.29244 9.54955 32.129399999999997
338 1 31.177 21.446999999999999 31.478300000000001
339 1 34.077800000000003 26.2681 35.006799999999998
340 1 3.71156 21.625800000000002 6.2106899999999996
341 1 33.835900000000002 24.0764 1.8322099999999999
342 1 9.2630599999999994 18.184699999999999 12.586
343 1 0.049818800000000003 26.0199 31.7531
344 1 28.6145 24.7424 8.3917000000000002
345 1 11.2227 27.2041 26.873000000000001
346 1 13.911099999999999 16.814 10.6449
347 1 33.947200000000002 29.166399999999999 24.620100000000001
348 1 11.4438 19.866399999999999 31.346800000000002
349 1 4.9538500000000001 30.937799999999999 22.162700000000001
350 1 6.8444099999999999 20.763400000000001 3.91526
351 1 17.455500000000001 24.991099999999999 28.5061
352 1 3.0300099999999999 21.7363 30.579799999999999
353 1 29.317599999999999 15.4351 29.609000000000002
354 1 4.5740699999999999 18.996500000000001 1.0620499999999999
355 1 17.178100000000001 18.957699999999999 9.5574399999999997
356 1 10.9994 26.165500000000002 3.4832000000000001
357 1 33.929299999999998 0.86441500000000004 27.510000000000002
358 1 29.284800000000001 33.329300000000003 13.3977
359 1 2.9205700000000001 20.4971 16.530200000000001
360 1 3.49458 24.6297 20.2042
361 1 9.0932300000000001 28.3446 21.624300000000002
362 1 1.4728600000000001 20.611799999999999 22.085100000000001
363 1 34.074399999999997 30.5471 31.168199999999999
364 1 8.3062699999999996 31.489100000000001 32.040700000000001
365 1 28.4193 25.8169 25.451699999999999
366 1 7.2916999999999996 34.353900000000003 32.494599999999998
367 1 9.9738299999999995 7.2948300000000001 25.003599999999999
368 1 15.162000000000001 29.324400000000001 33.506500000000003
369 1 28.877600000000001 31.2607 33.349400000000003
370 1 -0.057882999999999997 15.3613 5.5496699999999999
371 1 29.315200000000001 26.634899999999998 5.4093200000000001
372 1 10.198700000000001 0.66552999999999995 9.1017399999999995
373 1 20.247 34.5839 22.0365
374 1 17.944099999999999 26.191199999999998 7.8399400000000004
375 1 2.0433400000000002 30.497199999999999 23.771799999999999
376 1 8.5559499999999993 22.957799999999999 10.418799999999999
377 1 35.387900000000002 22.909500000000001 10.732100000000001
378 1 15.068300000000001 23.288799999999998 8.9799500000000005
379 1 34.734499999999997 22.573599999999999 30.015699999999999
380 1 11.1859 30.6875 23.9529
381 1 3.5067699999999999 27.500499999999999 21.293099999999999
382 1 13.679 25.830500000000001 32.566299999999998
383 1 31.885200000000001 22.274000000000001 6.67211
384 1 13.069699999999999 30.6523 0.58237000000000005
385 1 25.8367 19.528600000000001 1.25831
386 1 16.6921 23.8048 4.5829599999999999
387 1 23.826699999999999 29.1114 4.5082100000000001
388 1 22.168099999999999 27.892900000000001 12.819800000000001
389 1 18.431799999999999 32.218299999999999 6.2447600000000003
390 1 10.303100000000001 0.76283900000000004 13.3955
391 1 16.128799999999998 30.211300000000001 12.6699
392 1 12.572900000000001 30.289000000000001 3.6388099999999999
393 1 19.7608 21.147600000000001 10.4811
394 1 16.586600000000001 32.7012 21.916599999999999
395 1 3.96549 25.783100000000001 28.459499999999998
396 1 22.434999999999999 31.765599999999999 24.767199999999999
397 1 8.8637200000000007 2.1309100000000001 18.412700000000001
398 1 14.0685 0.048934999999999999 22.746200000000002
399 1 18.2925 25.7499 1.0190699999999999
400 1 19.578199999999999 29.9221 32.613
401 1 12.6325 2.7385100000000002 23.488499999999998
402 1 18.173999999999999 34.710799999999999 4.1507500000000004
403 1 12.254099999999999 0.36860100000000001 34.672499999999999
404 1 13.781599999999999 3.1862599999999999 1.98001
405 1 12.165699999999999 5.9753100000000003 5.3354799999999996
406 1 19.744700000000002 9.8248899999999999 14.088800000000001
407 1 15.773300000000001 1.4348099999999999 11.951599999999999
408 1 17.7789 6.1486299999999998 23.191500000000001
409 1 12.9808 33.804000000000002 13.43
410 1 18.5349 2.4947599999999999 9.2337600000000002
411 1 18.153199999999998 30.734400000000001 26.754999999999999
412 1 19.487200000000001 33.908700000000003 33.075699999999998
413 1 29.038599999999999 1.7637 16.835000000000001
414 1 22.8935 6.86334 18.461600000000001
415 1 14.5451 26.832000000000001 29.360700000000001
416 1 8.0296000000000003 14.597899999999999 1.5094399999999999
417 1 13.3873 4.6909999999999998 31.711200000000002
418 1 15.307399999999999 6.73116 34.512500000000003
419 1 10.326700000000001 8.7968899999999994 35.209499999999998
420 1 11.444599999999999 11.7316 3.8410099999999998
421 1 12.369199999999999 31.326599999999999 7.4133399999999998
422 1 5.3540000000000001 8.0881500000000006 12.8018
423 1 8.3133999999999997 5.7103099999999998 0.91808800000000002
424 1 0.75902999999999998 17.652200000000001 13.717499999999999
425 1 15.515700000000001 10.680899999999999 19.363700000000001
426 1 7.9994399999999999 10.309200000000001 18.815899999999999
427 1 20.103100000000001 5.4633399999999996 21.095099999999999
428 1 16.439499999999999 9.9549699999999994 15.8934
429 1 8.9793699999999994 12.139900000000001 16.238399999999999
430 1 13.264900000000001 14.869300000000001 21.867699999999999
431 1 4.2392700000000003 22.243200000000002 2.7791399999999999
432 1 17.2499 12.5769 7.8635799999999998
433 1 9.6163399999999992 25.5639 33.518599999999999
434 1 4.7518500000000001 15.7544 10.5456
435 1 10.7599 14.711499999999999 10.3964
436 1 17.631799999999998 14.7682 14.698600000000001
437 1 8.6978399999999993 11.42 0.81032700000000002
438 1 15.585599999999999 9.9158500000000007 7.9139900000000001
439 1 14.073499999999999 15.404299999999999 5.5870600000000001
440 1 5.2630100000000004 26.343699999999998 14.4801
441 1 28.909099999999999 4.5589899999999997 4.2473900000000002
442 1 3.0652300000000001 12.0932 15.182
443 1 10.3446 33.082099999999997 16.571200000000001
444 1 22.4618 12.414899999999999 11.718400000000001
445 1 13.123900000000001 31.197500000000002 28.796199999999999
446 1 4.4411899999999997 18.576899999999998 4.0983299999999998
447 1 14.4802 5.8025700000000002 25.304300000000001
448 1 7.03003 19.966799999999999 34.865600000000001
449 1 34.775100000000002 10.7378 29.700199999999999
450 1 34.151400000000002 22.099900000000002 18.722799999999999
451 1 15.180099999999999 26.1524 1.7892600000000001
452 1 22.709599999999998 15.7082 5.3026900000000001
453 1 7.1144499999999997 17.450500000000002 9.5111600000000003
454 1 24.2774 18.3157 5.0710499999999996
455 1 11.875 10.0443 19.997299999999999
456 1 8.6351800000000001 28.561900000000001 34.700200000000002
457 1 3.3608600000000002 22.423500000000001 9.9392099999999992
458 1 16.633800000000001 25.1677 15.929399999999999
459 1 13.533899999999999 21.685600000000001 19.725999999999999
460 1 22.9863 29.429500000000001 19.466000000000001
461 1 5.7591799999999997 17.0047 22.106200000000001
462 1 21.827300000000001 22.754999999999999 27.3538
463 1 17.601400000000002 22.4696 1.8384499999999999
464 1 4.1460299999999997 31.576799999999999 35.118400000000001
465 1 2.1875 16.881799999999998 34.661000000000001
466 1 6.5853700000000002 6.9457399999999998 28.952400000000001
467 1 1.7922199999999999 24.0581 2.3460800000000002
468 1 11.978300000000001 23.047599999999999 6.9941300000000002
469 1 25.850200000000001 13.0032 6.4654999999999996
470 1 10.4183 30.5686 13.2037
471 1 10.778700000000001 20.584599999999998 8.1578900000000001
472 1 17.7501 15.6897 3.5846399999999998
473 1 27.830300000000001 24.169 19.886700000000001
474 1 8.1759000000000004 17.6447 15.6312
475 1 9.1497299999999999 22.850300000000001 18.924900000000001
476 1 12.303900000000001 19.573399999999999 22.686499999999999
477 1 24.354500000000002 19.5901 32.278100000000002
478 1 23.191800000000001 29.1965 23.433499999999999
479 1 7.0327599999999997 26.435600000000001 31.0947
480 1 10.928599999999999 8.63232 13.539300000000001
481 1 35.1389 20.041399999999999 28.083200000000001
482 1 14.128 33.353499999999997 1.4063699999999999
483 1 1.8009299999999999 4.1911199999999997 32.404899999999998
484 1 6.5113700000000003 20.424600000000002 8.7773199999999996
485 1 14.1061 20.724399999999999 11.3766
486 1 23.1249 1.75718 13.754300000000001
487 1 22.912400000000002 0.76654999999999995 4.1262299999999996
488 1 16.220800000000001 0.025596000000000001 19.790900000000001
489 1 10.604900000000001 25.0488 11.485300000000001
490 1 9.6891499999999997 23.744800000000001 14.270899999999999
491 1 16.942499999999999 18.3462 13.5549
492 1 17.455500000000001 28.8033 0.446828
493 1 16.198 24.134499999999999 34.030000000000001
494 1 6.3713600000000001 29.010000000000002 29.084
495 1 19.397200000000002 21.946999999999999 25.289100000000001
496 1 15.2134 30.036300000000001 6.0412499999999998
497 1 7.8244400000000001 22.604399999999998 1.73942
498 1 6.6751399999999999 29.0151 5.03843
499 1 33.641100000000002 20.5548 33.113500000000002
500 1 17.500399999999999 32.380499999999998 16.059999999999999
501 1 15.216699999999999 27.2334 18.162099999999999
502 1 21.1891 28.050599999999999 15.630800000000001
503 1 14.568899999999999 21.476500000000001 4.6056800000000004
504 1 23.3157 5.7918700000000003 11.248900000000001
505 1 17.0627 23.841699999999999 22.635200000000001
506 1 14.968400000000001 32.454000000000001 24.775200000000002
507 1 4.1346600000000002 30.081099999999999 27.1556
508 1 12.921900000000001 28.709299999999999 12.767300000000001
509 1 3.96515 27.802600000000002 31.034300000000002
510 1 17.340199999999999 9.157 32.908799999999999
511 1 16.1571 22.985900000000001 30.8796
512 1 16.845099999999999 33.604799999999997 28.867999999999999
513 1 25.3184 2.4077099999999998 31.910599999999999
514 1 24.1129 0.12959699999999999 30.016200000000001
515 1 9.9013899999999992 22.776800000000001 31.7822
516 1 23.138000000000002 4.4243800000000002 25.0608
517 1 11.542899999999999 32.606299999999997 10.376099999999999
518 1 22.642099999999999 3.29657 8.6346500000000006
519 1 15.9947 32.436799999999998 4.3550199999999997
520 1 19.854800000000001 0.67920400000000003 12.256600000000001
521 1 23.469899999999999 4.5721699999999998 20.750900000000001
522 1 17.700600000000001 18.7835 26.546800000000001
523 1 18.480699999999999 2.3950399999999998 23.413599999999999
524 1 32.7928 22.401900000000001 23.009499999999999
525 1 15.726699999999999 32.425600000000003 18.8201
526 1 26.828900000000001 5.1426999999999996 23.4099
527 1 25.469799999999999 21.947399999999998 18.0642
528 1 25.899699999999999 28.9727 28.770299999999999
529 1 24.386399999999998 29.4939 32.589799999999997
530 1 15.3507 5.9676900000000002 28.924499999999998
531 1 26.180399999999999 34.422600000000003 34.528599999999997
532 1 22.4574 34.203200000000002 32.623399999999997
533 1 25.489100000000001 4.38368 6.5464000000000002
534 1 26.558399999999999 9.0046300000000006 10.639200000000001
535 1 8.3846600000000002 25.098199999999999 17.098400000000002
536 1 20.084399999999999 3.0196100000000001 6.8042499999999997
537 1 15.8028 3.4822299999999999 18.630800000000001
538 1 18.167000000000002 14.797800000000001 18.9955
539 1 24.859000000000002 33.395299999999999 21.9252
540 1 16.426100000000002 18.273599999999998 18.6874
541 1 23.212399999999999 4.1108099999999999 28.904800000000002
542 1 13.136100000000001 34.888500000000001 27.683599999999998
543 1 26.509399999999999 32.315300000000001 24.374700000000001
544 1 16.7346 22.577100000000002 17.755600000000001
545 1 26.523900000000001 6.3665000000000003 1.48343
546 1 17.1021 10.7646 11.792299999999999
547 1 22.712599999999998 9.6430199999999999 9.2639800000000001
548 1 12.4259 15.094099999999999 0.67641899999999999
549 1 14.985200000000001 3.90882 10.182399999999999
550 1 28.3066 8.1378699999999995 4.6480699999999997
551 1 8.6534200000000006 6.73116 5.8691000000000004
552 1 19.521999999999998 2.02616 15.4613
553 1 17.177399999999999 4.3413700000000004 12.9033