LAMMPS data file via write_data, version 2 Aug 2023, timestep = 8000000, units = metal

1002 atoms
3 atom types

0 35.22820204664032 xlo xhi
0 35.22820204664032 ylo yhi
0 35.22820204664032 zlo zhi

Masses

1 22.98976928
2 14.0067
3 1.00784

Atoms # atomic

934 1 0.979316652204639 3.0298677562120613 2.408945587834588 3 0 4
299 1 4.703366071496021 3.3879768883201105 2.095382890274093 -1 3 -5
51 1 7.8191940951445895 0.7016999965694585 4.953947409988358 -1 2 2
791 1 8.699095178451863 2.315541037652317 1.8016336120907517 -3 0 0
597 1 12.119613100212833 3.394346735472622 3.4248195211818033 -1 -2 -3
264 1 12.042015812223847 4.9325539258213915 0.38365738523555 -1 1 -2
324 1 11.738136527568042 1.6231231066145304 0.36452495519639494 6 0 3
213 1 16.3845046683677 2.2284226377912266 3.4744165953962423 0 1 3
346 1 17.99440338659222 4.9314804560198535 4.875861988049138 3 2 0
382 1 15.224170486898636 4.182329660188462 1.1644689431599773 -2 -2 -5
256 1 18.245162235869127 1.3501204463453935 0.11067193719146218 -6 0 -3
565 1 23.751159840187942 1.1539712431958162 3.6316359473632702 -2 3 3
621 1 20.268633805879404 3.4267089287835732 1.6180101362705201 1 -1 0
115 1 24.303460593986454 4.680855826671459 1.5008922732031929 0 -1 4
156 1 23.561984087754777 0.7769650275225779 0.13730343339827936 1 3 6
825 1 26.589757155834864 3.391465303305331 3.6177414921452797 -1 7 1
438 1 30.7626691254981 3.38551810473849 2.006546796884721 1 1 1
369 1 31.56152790846984 0.5865212478813467 0.15267451861685613 0 1 6
947 1 33.58916806669815 1.753876233425287 4.098367729501551 5 3 4
929 1 2.315377665784611 6.9225207998280505 0.3381186181602898 -3 -2 3
770 1 0.16574839549827414 8.892256850308618 3.4625517632717746 1 0 -7
211 1 3.1175440798398286 6.022073626095986 4.104105495224407 -2 -1 -2
164 1 9.23974728668015 5.876061911366995 2.361034752362285 -2 -2 -3
138 1 5.700214947551754 7.709307633206282 2.3154679133489773 -1 -3 -1
29 1 9.298082436299195 9.068763606170004 0.9856439911798789 2 1 -1
639 1 8.739395253973365 9.75430489395462 4.441360474230583 -6 2 -5
678 1 11.950140659849263 6.714447179325769 3.5983898979238225 3 4 3
724 1 14.43898767600904 7.890293089949762 1.3716943520351914 2 -4 -4
654 1 14.932283458042415 5.2909339539942115 5.020426343899706 2 5 7
669 1 16.346776514882674 8.81063099750882 4.1739635766387435 1 0 1
58 1 17.541837146691186 6.958768210928799 1.0368612204825942 1 -5 4
448 1 20.659332884767643 9.3203601049765 1.2366252119748817 -1 0 4
956 1 22.838627470675004 5.257376880091484 4.435289838186871 2 1 4
976 1 20.379734042724476 8.998884908508996 4.911762507716694 -2 2 -1
940 1 24.48302389402205 8.138745870958706 1.6847744553512793 4 5 6
380 1 27.969474337562378 5.677796839534304 1.7517501501625552 -5 1 0
261 1 30.065350687383436 7.359141416236882 1.950519304162657 -1 3 -2
983 1 25.723530298695817 6.9781429171779905 3.9901596810309736 -2 0 1
529 1 33.53602345644325 6.504522881600286 1.2820524570012442 2 2 4
79 1 32.2558988301194 9.107610963657901 0.033967535379159405 -4 2 -2
374 1 32.91804116620054 5.501127772197171 4.985566651370981 -3 -3 0
581 1 31.451387255041144 8.95300964876454 4.892962546584479 2 -3 -3
544 1 3.5743056254566827 10.507580473111137 1.9948886981305707 0 4 1
941 1 2.339995337403798 13.483525942057069 0.9441035155914435 1 -1 3
607 1 0.6462511959042592 14.702612687226196 3.0079185936525876 -2 1 1
300 1 3.131455041206529 12.893838746350829 4.778952630095768 -3 3 0
519 1 0.9088258376909775 10.365724078706299 0.14450752949454682 -1 1 0
404 1 6.836553265081742 11.947005500498127 2.7604298921420316 0 -3 -5
962 1 5.786813437445702 15.051923575906677 4.760787668610232 -4 0 4
787 1 10.700459681144565 12.305683466438499 2.519102361643565 -5 0 -1
464 1 13.91577084914738 10.883454712278635 1.4422420547501695 1 1 3
361 1 11.976401751240525 14.95682361405989 0.36680243735000295 1 -4 -4
665 1 18.52712470746163 11.89043757623709 3.378934016101221 4 0 -3
444 1 18.786546216362034 13.01653537754182 0.04132229099539686 5 -1 0
729 1 23.19841163393892 10.212532906984862 5.001024116718899 5 4 0
967 1 25.095987710707377 13.265100262671618 4.961424636966483 0 -2 -1
978 1 21.838923760039656 12.253758203539268 2.1947741998728514 4 2 2
360 1 23.922319085198136 10.87213793204837 0.10516448745105045 3 0 0
191 1 26.883229335040383 10.09846691920175 2.7957619214606186 -1 0 -1
675 1 26.197823836541072 13.128147357442344 1.6914620908773441 4 5 4
359 1 28.931684965498636 15.089390248033945 3.831679746191766 1 0 4
36 1 29.42576047004413 12.088532918210275 2.042821369023458 -3 0 -2
576 1 33.491557914679376 11.794993941492779 2.8724342966994145 2 -3 4
143 1 31.069865952690087 14.841517425703545 1.7654740659393566 1 -1 2
574 1 31.878662057383227 12.82163155316498 4.898765369410609 -2 0 -1
133 1 2.3164255234533577 16.922582067280917 0.8410926152943835 -3 1 1
106 1 3.191434931195115 19.99116663158917 1.2645182223496505 1 -3 -3
260 1 3.3492748872265263 17.119836406258436 4.257260864263392 -1 6 1
691 1 9.190637175617518 16.983059654748843 2.9260168976806757 0 -1 2
985 1 6.266846418208613 19.34111846066398 3.0437171018378795 -3 1 3
856 1 5.731705024766589 15.656769447790488 1.7034523936384798 7 2 -1
997 1 9.964295127609034 19.9432054863852 0.8269446894079169 -2 -3 -3
758 1 13.560445459962317 18.631928314030137 2.87673608491639 -4 1 -6
957 1 12.156416993453638 15.123319923396332 3.877136030613887 1 3 5
640 1 15.827191099359176 15.277262728738302 1.7254311382601877 -4 -4 -2
822 1 18.290733640206135 18.713237703917088 1.1394911667036145 2 0 4
222 1 20.01800649265056 15.506132421023116 1.2988394102715395 -3 0 3
365 1 18.05563485733021 19.88349239750221 4.546890362558275 2 -2 -2
989 1 23.78450647430739 15.458347832186996 2.437011147062998 -1 -2 -4
481 1 22.537013498289255 17.97388922701341 1.1475300876114332 -2 -2 -3
667 1 25.1140026589281 20.051523345379422 1.8742376962385787 0 0 -1
737 1 23.22189466782382 17.60084135529932 4.3952744932980305 3 -1 3
693 1 21.329161398632248 20.128478196340374 3.5414338587964926 -3 -5 -2
601 1 26.07516233952714 17.381092464853808 3.9164005579062318 -4 -3 1
409 1 29.259297863370957 18.065254537722254 1.7737433318330758 5 3 -5
362 1 25.437865838115986 16.17233015016175 0.07237529384867258 -2 2 1
752 1 33.67795505486741 17.248526339159103 2.118452315273397 6 2 -4
907 1 34.98155932632624 19.852583802993923 4.055626667216562 0 -4 5
676 1 4.017666230821482 23.583672276616564 0.08345270944931785 -1 -2 0
915 1 3.2221695435000846 21.196444505804703 4.405627248157573 2 1 1
427 1 0.45720907473633227 23.90323256782959 1.9900634490291305 1 2 -1
398 1 9.79304843528799 21.64356720879517 4.248288541739513 -3 1 -1
72 1 6.936994643214852 22.951824733835164 2.398718664509335 4 0 -2
894 1 12.661478347702186 25.045706288175612 3.6146541265350707 -1 -4 4
319 1 12.32917008750133 21.40037929129411 1.9930594701629896 1 1 -1
955 1 15.096574454326355 22.166301717199694 4.355502603564774 -2 2 0
467 1 16.51140361219887 20.89718971122925 1.5388846557623186 -1 0 -2
413 1 18.980092626195017 22.628359434459277 2.7182587810766514 -3 -2 5
71 1 16.143921664111193 24.883331302696043 0.5988115081365271 1 -4 0
463 1 23.50820590037999 22.837341522316756 1.6498192439158956 -4 2 -8
552 1 20.683230066162498 21.903556433633984 0.1411308776924045 0 -2 4
225 1 27.47673589053261 20.507806928780877 3.79127366779129 -1 -5 2
386 1 27.5479712268782 22.673922768968442 0.5340928768474412 -2 2 5
295 1 28.041026011246284 23.53152178263704 3.7896956591470174 -2 -6 -1
548 1 31.402244187996036 20.344634653612914 3.2380174149929135 -2 0 -1
186 1 32.73824305411742 24.53106699687356 3.563650147606231 2 -1 0
283 1 3.2684125002891364 25.623862671881835 4.790298015335592 -3 0 -3
824 1 2.544635559186405 26.56131873123044 0.6750635893562552 1 5 -1
80 1 4.812234824684321 28.387494796214654 3.571996751813511 -3 4 2
566 1 0.3570452570145625 27.19028180500557 4.334053013434206 2 5 1
234 1 1.5068891459843887 30.09063766812146 2.658596528274579 -4 2 3
754 1 5.996875337260602 26.61438049490492 0.8568068183640385 3 7 1
146 1 7.987469464021491 28.548934653725837 3.0936286878999444 0 1 2
616 1 9.247562211961894 25.200936744187505 1.5210742010658966 0 5 1
436 1 15.049566265806124 28.099541885573743 3.145860281994968 -3 3 2
285 1 11.545144872690976 28.46546521638105 0.960907262450702 -4 -4 1
866 1 11.168128524697927 28.701320938307457 4.334201133546004 4 -3 -1
555 1 18.968866771917998 29.726694362489386 1.2435440064684558 0 -1 2
762 1 18.279652006463795 26.3435968756054 2.4029701465439754 -2 5 3
246 1 21.373993373449704 25.785855471505553 1.810172719913781 -1 -5 1
943 1 22.74416374336244 28.63940078703811 4.067837923140643 3 -2 2
746 1 24.540588198879497 25.534055342197075 2.4776922384871782 -4 -2 3
677 1 26.93136292035983 28.099693501402847 4.022577848602834 2 -1 -1
3 1 28.365607672707785 25.75702840963616 0.8967445059700082 -2 0 5
272 1 30.08323369548075 26.581828642484005 4.797907692537163 -4 3 2
668 1 29.568562650714068 29.45484307042428 1.8726580060829245 -1 -1 4
459 1 32.43256512532223 27.058989380979423 1.0064248864494059 3 -1 2
114 1 32.702998736829464 28.569309677470187 3.8336072642273695 0 -5 1
367 1 3.7894456357770188 34.687153326924744 3.7376408526273663 -1 -2 2
4 1 3.2369439844570222 32.231394509675624 0.4174695429722206 -3 -1 -1
986 1 6.200801745105179 34.27147749257045 0.8299479844457087 4 2 5
842 1 7.559136167389983 32.44711520488147 3.696386984704076 -2 1 -1
22 1 10.059179785847734 32.470015679608174 0.7655477321422852 -6 0 3
905 1 5.8992607543977895 30.384352543186193 0.9354387159653815 0 1 1
659 1 11.72197092712788 34.83864967846137 3.426788859242027 2 -2 2
834 1 14.848697326728066 34.501397637842004 1.5756573340378606 2 -2 -1
759 1 12.163279323091686 32.011162136972146 4.015662020649229 3 1 7
855 1 16.88385176937678 31.71116895101457 1.9293227683594865 2 4 5
475 1 18.709355975150977 34.409994952942355 2.9336869490364843 -2 3 4
18 1 23.757904637165435 30.72319917241673 1.736470221488994 1 3 0
638 1 21.28145910250491 32.180900237533876 2.69799631551671 -1 -1 3
723 1 23.680449731215223 33.67733420318492 4.727071688648203 -2 -1 5
612 1 28.877659412377078 32.213929772827946 4.515347085457056 -2 -1 1
689 1 25.877309844071732 34.165676595435535 1.1502469272797453 -1 -1 0
862 1 25.336749314226847 31.338272452139837 4.094908541604714 1 -1 1
924 1 27.034027744971254 31.20672670817281 0.9366148885409031 2 0 4
371 1 34.87106465157966 33.57665239653118 2.7436420637392627 4 -5 0
373 1 31.91861577906985 32.14911377164123 1.6921515770542677 -2 -2 -3
320 1 30.383309868185325 35.122524647839384 3.4046113869988752 5 4 0
643 1 34.50499490640513 31.826286259730335 0.0021424363494462547 0 2 -3
878 1 1.9051244300038666 2.1340780837059627 5.581994550492076 -1 3 -1
235 1 4.566886196183536 0.24616973344309653 9.833616895084138 0 2 5
951 1 0.3319247690452544 0.7333337021599193 9.416873732019281 3 4 -1
718 1 5.287680843494025 4.587297996228288 6.135432086394181 4 2 2
190 1 6.680644031119104 2.1313224725261826 8.508278566031244 3 4 2
40 1 8.503326233483431 4.188561488707193 5.948808426854966 2 -2 -3
912 1 11.756633512393245 2.524277500527567 6.284002948418366 0 -1 -2
136 1 12.772333752413852 2.204848396032685 9.418753584472537 -6 1 -3
282 1 16.317257218511962 1.9758645289236139 6.511208339440077 -1 -4 2
534 1 19.377207824061163 3.5703157138593857 8.172302445519058 2 6 -1
130 1 19.40370850876162 1.3549717043666607 5.552631549307955 -6 2 -1
61 1 19.330996288889665 0.5712557194303054 9.999092092554799 3 1 -5
60 1 22.479529758265016 2.0985051778706927 7.4722634734550395 0 0 4
571 1 24.5505779756104 3.2500612715909334 9.518091444696907 1 5 0
769 1 28.134735484719716 3.0891189605952656 6.86337570305615 3 0 4
425 1 30.86723053710659 1.6047592692301442 6.690416010496966 -2 -2 -1
658 1 33.161168941291706 3.5172676047447773 8.372312521045602 1 -2 0
204 1 2.0191903154527884 8.884646912058745 6.57285327176929 -2 8 2
700 1 2.7983248817616215 6.2503199727197005 8.392373200876932 2 1 1
857 1 5.295104201515853 8.993166044346989 8.800804420445287 0 0 -1
335 1 6.239171815348442 7.680549096863426 5.832912447238793 -7 -1 -1
397 1 8.871299847820849 8.576112152240551 8.14531464358746 0 0 -4
523 1 7.572990098584109 6.133654105791021 9.635586279664532 -2 1 -1
353 1 12.139077233512129 9.573389982032667 6.6065738109182615 2 -1 2
661 1 10.640817877127283 5.183111550086145 9.38228072738413 3 0 3
610 1 13.190221472493615 6.9018431477687825 7.4355453612263185 -1 -3 1
184 1 15.452516662355903 5.266291279400504 8.879401792455598 -2 -2 -4
507 1 17.754713962520636 7.7926382783616415 6.991078655205149 0 -2 4
139 1 19.733191982977807 7.626750132780481 9.642873764806598 2 -1 1
287 1 15.638015078392234 9.357242724691275 9.709665584913287 -3 -5 -2
859 1 22.616597273356334 7.335275451546166 7.983722334169188 3 4 1
165 1 25.707570493340928 5.1196881098853355 7.187852212712852 -4 3 0
105 1 28.864647920413795 5.91139125184482 5.2306779300579604 -4 -7 -1
682 1 25.987156534436743 8.688012947214196 7.092929391197886 1 -4 0
259 1 27.825207208737545 9.573733615715982 9.668452103493284 0 -5 -2
564 1 29.674727273590292 5.081015292480498 9.030293562299315 2 0 -3
455 1 35.22768720397215 6.188440743864857 6.40231265285825 -2 -4 -3
999 1 33.33624476912446 8.358736661837431 8.066204883559672 -2 1 1
172 1 2.122658759170635 13.126880668782118 7.911174609798656 -5 2 0
554 1 5.237925914451823 10.753607368977049 5.58470338175173 0 1 1
823 1 8.74040268085859 13.257481605254883 6.424722313576276 0 0 5
872 1 6.251665375470503 14.29918317068425 8.420745652036643 -2 3 0
853 1 8.034968765523676 11.541166039129395 9.517474484292984 3 0 1
626 1 13.073012618113415 12.187937996370898 9.628248621001823 1 0 1
1000 1 13.36164148922737 12.43471868802273 5.248171798644977 -3 -1 5
456 1 11.440107226199622 13.667624889931123 7.3143071083415645 -3 -3 -3
147 1 17.238901506812166 14.480495965046066 5.4227268114937806 -3 -3 0
873 1 15.799458448180088 14.146829747234166 8.222406265984558 3 -2 -3
918 1 16.800497870237376 10.950463749389515 6.818695208130627 4 1 3
433 1 19.748016716893744 11.635112664467675 6.817717709916323 -6 0 -1
896 1 21.27092562762323 14.293208504830636 5.216264400368782 -1 0 -2
107 1 23.158145683411377 11.094662489224598 9.366726324277733 3 -3 -1
606 1 21.872460684916362 14.415789251748961 9.320532584849746 -8 -3 4
419 1 28.549503262936682 12.659733885151095 6.145191529162479 -1 -2 0
88 1 25.69617933833343 13.917309279182493 9.212479019253559 4 6 4
812 1 29.387978979183373 14.119850629649877 9.928375988912192 2 -1 2
635 1 30.922152670252025 10.43513031707461 8.058119011588905 1 0 2
579 1 34.30061073782689 11.555260267456827 6.5261992600431995 1 0 -2
630 1 34.82665288253924 15.030990324799692 6.4338077786489185 0 -1 -2
887 1 1.7645426062335132 17.561377596117758 9.288792376725967 -1 -2 -3
308 1 4.908702439986484 17.824664020129706 8.977711288322261 0 2 0
281 1 5.914450737538817 19.723602409201682 6.88046409987728 2 4 1
451 1 8.337469567135463 16.151079273768843 6.716055915776602 -1 0 2
784 1 9.339932219635196 19.440139883655387 8.087424555224093 7 4 5
814 1 11.796738650201275 17.06381976976831 7.796420094896143 3 0 4
780 1 14.797672835319142 17.319536920543104 6.388499788596934 0 -2 -1
366 1 14.526320642141583 18.190651890699986 9.496592316005275 -4 -3 2
230 1 17.789578533512362 16.700988811550108 8.925919081826299 -2 3 -1
484 1 16.939404479369806 20.122887296270964 8.435269167700696 -5 0 -3
248 1 20.988645183406803 17.936330055791 6.711992558213171 -6 -5 -3
66 1 24.91262580617296 17.116429565220248 7.987679671910738 -3 -1 2
48 1 28.65498443742113 17.837752019233037 6.3906192060884965 7 -1 3
817 1 28.06104756014812 17.93751175528725 9.958615438181363 -1 1 -3
789 1 31.690846885990368 17.382515576706282 5.250258219990735 -2 -4 -4
583 1 34.22769381920358 15.941819763868684 9.808274657256975 -2 2 6
615 1 31.456459782776843 15.219042484511935 7.820265315393459 0 -1 0
356 1 31.56221762388612 19.25808408634176 8.498432168267826 -1 -2 1
77 1 1.7010752302987209 20.155840232321523 7.453344031118979 2 -3 3
979 1 2.093253295320297 25.00202271255048 7.919661463077394 -2 -1 -2
301 1 4.143291386336817 22.717165060273913 7.055196955783192 0 1 -3
73 1 8.57652025222817 25.02257058343793 9.330134725653764 4 -1 -1
8 1 6.883719665515387 22.017791702317126 8.8915836161532 1 4 -4
322 1 11.457899014152579 24.67918127230124 6.714710312898185 4 6 0
649 1 12.389201772019725 20.526987546205927 7.2631410554992435 0 0 1
325 1 14.550971760323954 23.414045726772684 8.43561027896336 3 0 -2
980 1 11.864438153759421 23.12123248703007 9.854383926724505 -3 4 0
318 1 18.367398403250426 23.103022778738854 7.007021854850189 -1 5 -7
807 1 21.312878208411902 23.10072522859914 5.164219242197638 -3 -1 4
206 1 25.014508592468086 22.910814952160244 5.407895579384338 -3 1 -2
763 1 22.935158798148073 20.307864990196258 7.2045974606643055 4 2 2
200 1 21.23331453111089 23.3190977569954 9.052946379318634 -2 0 0
538 1 27.753732230539683 21.39449980510962 7.48998596235493 -2 0 -3
503 1 32.970538770044506 20.68774686089083 6.317150101408792 -3 6 -1
223 1 34.64119014991748 23.122106420761316 5.6454546133589805 -3 -2 1
549 1 34.95248899533037 22.585256723217427 8.935549511372216 0 0 0
158 1 30.43203750295992 23.671594378825894 6.3606242927515275 -1 -2 0
385 1 30.829904760112832 22.458965070671113 9.886914931863378 -1 -5 -2
705 1 2.2515998309535177 28.718902719694675 7.210669652663378 0 -1 0
307 1 6.5745689594094765 25.382379119425927 5.504564169026587 -1 -2 -1
938 1 5.263530541736919 27.11935107382441 8.240079336412286 -1 5 -2
854 1 8.381675205039029 28.636625812249047 8.92528269974548 -4 -3 1
795 1 14.141770815331924 30.18530736640763 6.018745208141937 3 3 4
547 1 12.057128253505276 27.20792253115774 8.238867187464615 -1 0 -2
886 1 14.849061659144311 26.167188093447106 6.603997408568966 -2 -2 -6
917 1 16.032009748974264 29.019585191407273 8.61722952090069 0 -3 2
23 1 17.714700967657915 25.646014166203052 8.746400433843258 -5 4 0
25 1 19.642754388077474 26.07890950099124 6.7525555801875266 0 -3 0
596 1 18.176661826915623 29.689129952946008 5.69534179796043 0 -1 -1
553 1 19.207290555555332 29.372948530277192 8.75341363481567 1 -4 -1
660 1 23.375699507254158 25.655423192001887 7.354759205779394 1 -4 2
516 1 24.423522343178455 29.670873883566504 6.444484941822478 -1 -5 -5
637 1 27.285931868627074 25.652622876444262 7.285431507393395 0 0 2
634 1 28.20806684684416 29.394311437600724 6.612392557596313 4 0 -1
991 1 26.718917340811423 28.076802605389606 9.85233123334577 3 4 -6
443 1 35.10273290417224 28.575595903531838 9.813019500376873 -5 -2 2
625 1 33.79892711876436 26.573060721573246 7.049249783605655 1 1 -2
32 1 32.015241240443004 29.87712204615947 8.649903914720763 2 1 -1
794 1 30.644884381865563 26.279522696015352 9.443843619463994 -1 -5 -3
835 1 3.8931984553580157 31.230799560629606 5.0756278497664855 0 3 3
560 1 0.06360694458823145 30.977819270671155 6.215372766089419 -6 1 5
719 1 2.6577908012789555 33.8028530399847 6.782129554755222 7 -2 2
403 1 0.4661695812300924 31.715206834185846 9.158726355364086 4 2 3
642 1 9.717995931232535 35.21891029319708 7.729272496442751 6 4 0
388 1 8.739624032911598 30.839344126615376 6.1334861578476545 2 3 5
810 1 6.444528201214511 34.0395534363223 6.996383174839908 -1 -3 2
257 1 5.265078152673375 30.619759142695564 8.230122960360715 -1 2 1
262 1 10.709586356970489 31.273695624725278 8.073216276813922 3 2 2
806 1 12.55006756250886 34.25890659650144 7.236077703674076 1 2 3
888 1 14.919920560763813 31.730720645469052 9.04317705339393 4 2 -3
959 1 15.354157000011302 33.47719959742453 5.388517833945906 -4 -2 -1
135 1 18.21163784438856 33.177115568944664 7.369846266482838 0 3 -4
900 1 15.733041647165559 35.07245114377206 9.176096721427477 2 -3 0
973 1 21.81829328621757 34.52085392197804 7.366164730478363 1 1 4
247 1 21.464842729520214 31.710803223337027 7.822424649579481 -4 3 0
584 1 24.87269392233332 33.1873136117788 7.57505081536458 1 2 -3
631 1 26.39731719235787 35.06145383541839 5.133783074875235 -1 -2 3
470 1 28.696005438698087 34.105698905919674 7.460183625738101 2 1 4
488 1 28.576731459243884 31.3336817351313 9.602539090331307 1 -1 -4
293 1 34.014729843915866 34.61009099659445 6.582521926995683 2 1 -1
313 1 31.55751345611065 32.68136812618237 5.660840982585887 -4 -1 -2
536 1 1.8385182100158506 3.726007907618944 10.206540579178505 1 2 0
171 1 3.486335807220161 1.905020160413584 13.074784364857553 0 -4 2
908 1 0.46549936325046337 4.518547072396363 14.90527042971737 0 -5 -5
141 1 6.815324428353266 1.2265383990107683 13.067871407317213 -1 2 4
496 1 5.364187808390988 4.460662375221873 11.398875076341847 2 0 2
193 1 9.59146646124618 1.4200737480700387 11.368005739962978 -1 -3 -2
875 1 10.944286785525923 4.442414836977883 13.401135682302876 -3 1 4
599 1 13.738565576759957 0.17986107737862275 12.534372896095169 -5 2 3
864 1 14.809046651839324 3.795234747597384 11.722705749048883 -1 0 -2
863 1 14.660478829653027 2.441890048154832 14.953141762168466 3 0 0
903 1 18.267850706492002 4.063178381674613 11.76646076936111 3 0 1
145 1 21.236819952141108 4.294374187875916 10.786903232588662 2 -1 -2
69 1 21.999448743626445 1.8139974999107686 13.81790059009814 1 2 1
116 1 25.117910067460024 4.5038016678218895 12.9072154700889 3 -1 -2
84 1 23.86674716004329 0.3404936298253185 11.353602776023516 2 0 -1
753 1 26.820625048125326 1.511008118024047 12.954661718314707 0 -2 2
741 1 27.9251757284485 2.426881234807168 10.33469566388437 -1 2 1
152 1 30.57816621576616 3.5162920861064797 12.516503099353203 0 1 -1
312 1 34.14942428668037 2.551640450597814 12.035637933627635 -2 -2 4
43 1 1.1120825327962462 6.874719656445014 11.243720045082052 0 -5 -2
773 1 3.978499892475145 9.290808494977467 13.709196861103221 -1 -1 4
1 1 3.6746306067999117 5.745711080142905 13.890015168052315 -4 1 1
901 1 0.8709440274964729 8.524049593887433 14.071061197735716 -5 5 5
345 1 6.853117428891198 8.234316121777777 12.369648577147396 -2 -5 1
166 1 8.188909752863841 5.091155040294049 12.90833400090475 1 -4 0
541 1 9.681674769281374 7.963847508140506 14.807881167177772 -1 2 -2
199 1 13.787938940828715 6.69707604137583 11.424373944012164 -4 1 5
24 1 10.528953410263878 8.52590186743641 10.536336330727195 -2 0 2
556 1 13.101392961719853 6.797766181044093 14.94781150370791 0 0 5
885 1 14.366827180979794 9.840553035859884 13.610550858477994 -2 0 -4
224 1 16.84301297355898 7.023005413686281 13.235346748871113 3 3 3
411 1 18.056918636044436 9.92454750352337 14.211547074487935 -3 2 -3
808 1 23.971208901917425 7.47901019408384 10.632747048075741 0 -1 -4
558 1 22.056807384456583 5.704858375037697 13.814705006142507 3 -1 3
348 1 21.347228753138257 9.700284203605836 12.706165859154575 5 0 2
685 1 27.068022146260237 5.649687311484988 10.735782597346724 0 1 -4
163 1 27.274986594082684 5.156168980763988 14.93084709836257 -4 0 1
742 1 29.752967641570553 6.920460131146721 11.783606836790582 0 4 1
748 1 27.954727022658332 8.633929599359313 14.580771619820087 3 1 -5
249 1 33.347100828591564 6.456328648439845 11.810481317389568 1 0 -1
67 1 32.708446062508656 9.914954131015723 11.0932394754668 3 3 0
889 1 32.695764310767295 9.667509153626463 14.260861853160774 6 -2 3
391 1 1.3459340230971348 10.071291936198234 10.486957237819926 4 1 -3
827 1 2.024846265259969 11.777494385013952 13.552569889875176 1 -3 1
446 1 4.121190374248772 14.657507288465162 14.41594632467687 -4 0 -2
992 1 5.125103295941156 12.368631230815298 11.128390964185089 0 5 -2
303 1 7.685697906465546 13.88439714736379 13.124268650348464 -2 4 0
34 1 9.57103236093031 14.4646160179523 10.122477221005015 -1 -4 0
431 1 13.368534861975588 14.809532539679648 11.777835446724447 0 -4 -1
785 1 11.981606598267211 11.920345645661824 12.768317335264197 -3 -3 0
9 1 19.021317204181948 10.761701379261542 10.079725425372628 5 -1 -3
196 1 15.945380312923609 12.45679407449644 12.557620449274019 1 -6 1
2 1 17.62220652271502 14.825227347283446 11.74313584580649 -3 2 4
37 1 23.690406193954747 14.310203531184483 12.967403206030104 -3 0 -1
949 1 20.311475602746803 12.621945464690008 12.92983581050152 -2 1 -1
595 1 25.458651207721125 10.625918846741987 13.034244030402924 -3 2 4
377 1 29.43575316204045 11.121173733487472 11.857264416617154 -2 2 -7
498 1 26.841142015909888 13.66024887356489 12.018562561943206 -3 -4 4
563 1 31.782154818596904 14.343386815781745 12.895254419766328 -1 -2 -2
412 1 34.805541770587425 13.19382989267547 13.256117275661476 0 0 6
219 1 3.130416478621602 15.283640880742407 11.309083824474786 0 5 -5
364 1 3.6718244709107926 18.31173462625266 12.638988251099654 0 4 1
613 1 7.443629296995466 17.159263133707213 11.559011318940618 1 1 -2
372 1 6.6928603695488835 16.91149636452662 14.849898455862894 1 -2 2
494 1 11.274172874778905 18.256818910628372 10.874828463054204 3 3 1
674 1 10.286348785268414 16.248845701160736 13.432250305878956 3 1 -5
921 1 13.324870479182776 18.24825301921152 13.221254124858278 1 -1 -1
42 1 19.46819747262227 17.954239819631614 11.404916708012355 -3 4 1
497 1 20.43023661689961 16.083820462673973 14.526263904595112 -1 0 0
288 1 25.111528801825454 18.291616582102375 11.81960794235806 -1 -2 0
75 1 22.038829315854525 19.307303239406988 11.018412683594326 -4 -3 -3
826 1 28.5641320619056 15.371283615974518 13.985225513750816 -4 0 -2
102 1 28.647121593281042 18.3311553695061 14.980383753577764 -1 0 3
690 1 34.16927415704034 19.71307899793503 10.73870462175093 0 1 4
972 1 35.156801828034894 16.601042636140015 12.897183223079447 0 5 -1
254 1 31.451358993081026 17.430161586308557 11.849988827191261 -2 -1 -1
302 1 30.669430187179184 20.0239012867296 13.003993362614022 4 -2 3
334 1 0.11820369181801738 20.145065772395622 14.640819123632614 2 5 0
747 1 3.02123318323217 21.528813681056683 11.248750568800673 5 -1 -3
405 1 0.08214593196163104 22.91553503447695 12.156446632632402 4 0 2
176 1 5.013359527457078 24.322476154339892 13.747108401285304 -2 -3 -5
751 1 8.212729798999899 23.46909675616313 12.72254305832029 -4 2 2
932 1 7.96409618763274 20.245951264399817 13.096938374346559 -2 -4 5
572 1 11.169893636627794 21.363504281084005 12.623304599067913 -3 0 2
530 1 13.15749420295381 24.054726079028654 13.256181908225244 2 4 3
131 1 14.313528929013694 21.384671380810442 11.734583189995028 0 2 4
922 1 17.451173630523858 22.77704690330408 10.88726538291738 3 2 1
19 1 20.129479108336167 21.168270770334978 12.988002672348525 6 -4 1
376 1 17.312101011385472 24.30271376022981 14.149637732909696 -5 1 -1
306 1 17.024088243107972 20.730265818877655 14.000468554820456 3 -3 3
493 1 23.419748451586745 24.5678190276268 11.25366446731914 -2 2 0
703 1 24.418312409585067 21.288811827960394 10.091726297324131 2 -1 1
673 1 24.25639599410262 21.142821434766745 13.633865049715745 2 1 -3
76 1 20.141241840514574 25.005255725677195 12.650216488993491 5 0 -1
933 1 22.897264424723097 24.065538630248643 14.942019787606995 1 -1 -3
911 1 27.44211836735955 20.608605457675882 11.047289895778949 7 -3 -3
844 1 28.007327860891955 24.392112367125694 10.804880386560495 -3 -2 3
15 1 28.19330781993532 21.874508705489013 14.454273634701261 -3 4 3
745 1 31.186268165678563 24.212697052214068 13.35614189066229 1 2 1
423 1 3.651297572793199 26.329748948582058 10.92080116056274 3 0 1
623 1 3.7454745512453815 27.553484514704888 15.03717256672221 -3 -1 -6
434 1 1.249103576277064 26.1918726397354 12.684333466983324 0 3 -1
294 1 2.645884250192081 29.98570445853894 10.41585186517797 1 -3 4
185 1 0.5753803677050426 29.543342512893645 12.9688135388152 -1 -3 0
909 1 6.834421260102295 26.65062737452535 11.674124392229245 -5 2 -3
988 1 5.5653477391511155 29.249200779366895 11.859582199155891 -4 0 1
608 1 7.735981864736326 26.443948223531436 14.59387677653045 1 1 1
939 1 8.796470341232949 29.89884526463028 12.173834357668557 1 3 0
167 1 10.888558284586546 26.25132521967972 11.9812265084921 7 -3 1
627 1 13.599345772685513 28.577748112872214 11.302876034842676 1 1 -8
323 1 14.439578730372936 26.968503973715457 14.307713861382393 -2 2 0
120 1 11.728353288039834 29.11664449539047 14.269751771093732 2 3 2
368 1 15.360342441177044 25.75983918309562 10.746642865237426 2 5 0
506 1 17.571464809669624 28.412712755796612 11.681501482342258 -1 -1 1
375 1 21.159875173628784 27.1011805230609 10.190967744962906 -3 -1 -2
389 1 24.103922240084007 27.074655941712724 13.48431722798954 4 2 2
435 1 28.350484620759392 26.45452638422658 13.586249995354898 1 -1 -4
851 1 26.36502432765755 29.52338864363249 13.204589627356913 0 3 2
528 1 33.68890198236799 25.94720032800941 11.617450082673235 -4 -4 -10
996 1 31.273605361301172 27.932611786680845 12.599628959765866 2 -1 1
343 1 3.1791339527555453 32.847652325457126 11.94684601008196 0 -6 2
182 1 3.708993859248112 31.196990361551673 14.361748204340309 1 -2 1
586 1 6.153470213717963 33.33010462669775 13.915245814341205 -2 -5 -1
410 1 7.7242568108518945 33.30547770714467 10.256236896183232 -5 -2 3
672 1 11.656700126069902 33.7109915196704 10.544291265841983 -4 -3 0
559 1 10.8073009553856 32.594387353357725 14.155666381767595 -3 2 -1
7 1 14.1866536176537 31.706227124993475 12.066716254965907 1 -2 0
333 1 20.022077269110437 30.75424697282823 13.401674172722522 0 2 -1
848 1 18.033613422696853 31.800763465072766 10.230815692180899 2 -3 -2
469 1 17.27855662248372 34.515469285931054 12.880335497008922 0 -3 1
664 1 15.240726855031411 30.788013493061083 15.059080805435999 -3 -1 1
178 1 23.38347804818153 30.265305240239236 13.921716668067205 4 2 -8
465 1 24.25112139432147 30.966552660525107 10.275878110544584 3 -3 -4
715 1 21.34094154857106 33.215913276966084 11.324131532528197 4 -3 2
650 1 29.395442900712762 35.06869794942747 12.859380660193667 0 -2 4
311 1 25.92711707468591 33.07043864685543 14.137434350044753 3 3 -5
279 1 26.347416450998036 33.553264551180575 10.740669772246951 -1 0 5
961 1 34.86880442449257 34.030340268154745 13.028039187739292 4 -5 -3
221 1 30.222120384814747 31.42413526031884 14.00256368691732 3 1 1
351 1 32.64504530298747 31.443200162966775 12.387692266487859 0 -3 -3
963 1 31.616703507358 34.001599795844285 10.191711606482372 4 -1 0
774 1 31.889227144760515 34.86952589773302 14.523400705529284 -3 1 -6