LAMMPS data file via write_data, version 2 Aug 2023, timestep = 81300000, units = metal

4002 atoms
3 atom types

0 49.42095145851651 xlo xhi
0 49.42095145851651 ylo yhi
0 49.42095145851651 zlo zhi

Masses

1 6.94
2 22.98976928
3 14.0067

Atoms # atomic

3699 1 0.8879542408996242 1.5858587065730592 4.224605510438699 -8 0 3
946 2 2.1838127841340755 4.889535295295789 2.039252004278567 -4 -4 -5
3402 2 4.832667760738426 0.7801853250438388 3.8315780356764875 13 -9 4
2399 2 2.4384408212298276 1.8500511124037182 0.5999164008053022 -5 5 -1
2295 1 9.438476601049546 1.8462866834087885 1.5215079037640862 5 1 -7
3354 2 5.454028866027055 3.4770144011750723 1.8008004982931605 11 6 -8
2371 2 8.034553616261931 4.7992395740905005 2.6031817043021794 5 -1 5
802 1 5.988654898854231 0.5547414181412036 0.19280245065115176 -3 4 0
3723 1 10.840755830600049 3.1909921563234906 4.508179790264319 5 -11 -2
1620 1 11.714993114616375 1.4004445357641784 2.0323169906023817 -1 1 1
2734 1 13.7923373075786 1.607096621892406 0.24751122268503395 1 -3 -4
1715 1 14.638166727818245 1.6913463228147716 3.219478412146861 12 -4 -8
2784 1 13.038499311507262 4.058588776918707 1.9990058590443407 -5 1 2
148 1 18.202198643153586 2.4726983572084285 2.651907537807339 9 3 -10
1065 1 17.148978672627695 4.872517508671458 0.8398051866031196 1 5 0
356 2 15.155874563702827 4.692097067825441 3.818738344398419 1 0 -2
60 1 18.69026518058093 4.8448205555102435 4.454468988492724 -10 8 2
1292 1 16.50640324616574 0.39130185088232533 1.0562988469821473 7 4 1
3693 1 19.42599041402774 0.20787249849246195 4.16971721806614 -1 10 -3
3968 2 19.344401075122835 1.329877205748762 0.20637159668059826 -1 5 6
893 2 22.668560023747386 2.8196628862510575 1.0468926913302807 8 3 -5
3532 1 20.864138647156242 2.892881075777627 3.5470839710759856 1 -5 9
1668 1 23.196394900841355 1.5643885256260326 4.41023221019949 6 4 -3
268 1 27.003200319776436 3.3254531155374716 3.915321190859438 -6 0 8
3306 1 25.474108513750476 2.317547987262317 2.0366774095812388 -1 -2 10
920 2 28.832681581354496 1.3667051758332305 1.2456930417340542 -6 -4 3
2230 1 28.9996171158724 4.703804898206949 1.8921476194019604 -1 -11 13
495 2 30.368445403120283 1.7475932635077769 4.534915287128522 20 -2 -4
2968 2 31.969506079756144 4.328665714572842 1.3180054201695997 1 0 11
1744 1 33.67394315669681 2.7542787110477445 2.7447227362090163 -7 -1 2
3828 2 38.87457769420212 3.8441491140000426 2.031920772851585 3 -2 9
837 2 36.614524480358334 0.8392000379161266 2.0547682113066172 -6 9 11
3963 2 36.628121894362685 4.713725934442973 3.1599006007268655 4 -2 -17
2577 1 40.726880574754695 1.4091896227710468 2.4453419906430205 -11 -1 6
3813 1 42.30883112018134 2.3680139500252153 0.6692666582091975 -7 -14 -5
606 1 42.35072468762874 3.4893084742356772 3.673237570415972 10 5 -6
71 1 48.94954988065766 3.7443927223485565 4.19149289912033 -6 3 -5
3551 1 44.98505143816292 3.4993740517910132 2.15637042831127 -12 4 5
2407 2 48.217444556157794 2.625770691903206 0.37666775961694093 -9 3 -3
890 2 45.99960846283478 1.6200880863944116 4.501869557275009 4 11 1
1863 2 1.4488129920085593 8.736411042387088 2.5786008562752727 1 -3 -8
3902 2 4.024139140352143 7.723719699253425 1.169642860950749 0 9 7
3245 1 9.741161702145781 8.15041077090983 3.8772745444808403 -5 0 -3
3530 1 7.290307060646128 8.057519003890137 2.3888534853963375 11 8 -12
984 2 5.973423686441331 7.0850570836839495 4.871506124204839 4 10 5
3235 1 9.200711569533727 8.886762302934397 0.825691676506909 4 8 -5
1979 2 11.688971373074153 6.548015380265223 2.4035766337744096 3 -6 -1
360 2 14.847104681668263 8.406338090064617 2.6540476717584274 -11 -3 15
1006 1 17.789131538054612 7.4133877161791935 2.1167988501591 -3 3 5
1230 1 18.929076728607992 7.6461767180849245 4.838528305625777 -7 -6 7
812 1 23.844955752333174 5.295214098597047 2.8145568284716633 7 -7 -1
3557 1 20.17309152514498 9.311493835688722 2.170539071642818 3 4 5
1130 1 23.56249883662276 8.198364726315132 1.8390440507719263 -2 -11 6
1807 1 20.465815124903763 5.7174010218857285 2.045802356629511 -2 5 5
721 1 22.013353265457027 7.872505221115976 4.4219432027875145 9 -1 -8
3193 1 25.487047814533746 9.883521343612992 3.568488378458679 8 1 -13
111 1 27.001050765881043 7.926944155119756 2.0200545979286257 -4 1 12
1565 1 27.68031897479439 5.975568170755389 4.312344437127316 1 -12 14
3475 2 26.233565078663453 5.401786399934415 0.7218432903635259 -1 5 -4
707 1 30.026303004351924 7.412660075378908 3.065318235509526 -7 -6 -3
3999 2 33.467385478052954 6.755849186598098 3.3240053593589742 1 4 -5
1948 2 32.305213193111015 9.862275226459355 2.5907590787205885 2 4 10
3081 1 35.50253325593886 9.293834591865934 3.506258041083003 -11 -1 -5
3434 2 36.05108223518466 7.880872428841171 1.259643633633628 2 -3 -6
3890 2 38.99178835123095 7.611385516473266 3.238819475633602 0 9 6
61 1 41.93717925932975 9.271654386411559 4.080240688786788 -8 1 -5
1838 2 41.63781422688512 6.043301138184178 1.8281521524276891 4 -4 8
3641 1 44.277586101533394 7.1762950396716665 0.7752527386074692 -2 -1 4
978 2 41.59518057614882 9.43569982142784 0.34609972087688917 -2 7 0
1224 1 42.18279550503891 5.919298842790721 4.784353598340636 -12 -7 3
2095 1 47.894859832620554 6.468630365404883 1.8501452990196976 -6 7 9
1511 1 47.76831446749702 8.249967578794616 4.307409107368829 3 3 -7
794 1 45.147987931696846 6.39485254189257 3.7041027379980567 1 -16 -2
1633 1 47.15777666010251 9.752330036197348 1.420931622098915 1 7 6
2392 2 44.60095810006589 9.562494680455186 2.4799197436194835 -7 3 -1
1117 1 4.170595096716346 10.158304714420906 4.617443263240364 -8 0 8
52 1 2.5695677122376104 13.669160470252066 3.660229958122935 -3 8 -1
286 1 1.6053646995242246 10.728407158032303 4.692102923893294 6 -13 0
3792 1 2.4676892873072482 11.711470231030125 1.33025842783176 4 3 3
2478 2 1.2764831406383004 14.254969274656915 0.6108305473088408 5 -9 2
3027 1 6.1204248601473346 13.355830278493313 4.370233653947972 -3 -9 -4
2721 1 6.063984393721953 11.030296202211037 1.9063403013364835 -2 4 -3
1252 1 8.659505324579392 11.360562550872379 2.036010293905254 -5 -1 8
1671 1 9.500830497794738 14.263316957682587 1.0566651770260438 1 -12 -3
1983 2 6.4752848190711 14.467597313240113 1.530445058151851 4 -7 3
2442 2 9.39369159741988 13.789303932651157 3.945161984731552 0 -1 -14
3832 2 7.425842305817478 10.551005798045193 4.881995912911792 9 1 -2
180 1 12.451822378725158 13.188137448932668 0.6097225076297872 -6 -1 11
545 1 11.620071224414376 11.430035762409384 3.242991743193407 -7 -14 -4
3286 1 12.301059317588502 14.69115362105078 3.2310824199506025 -3 -4 2
779 1 13.902826118398616 11.017955488889998 1.0516803800977526 2 -5 -6
2717 1 15.67098612994192 11.544029028829184 2.934407583443545 -13 4 1
745 1 17.057588719745148 12.597324290358296 0.3645474598694481 3 -1 9
283 1 17.999716357742287 13.955244262957624 2.5378511986577434 6 -6 1
3506 1 17.910952390958194 10.038714859131215 3.9641499405964025 4 -2 4
1528 1 17.818757388720314 10.3064527361318 1.177688031553212 -12 -2 1
1061 1 15.082352496662407 14.546846294712516 1.444928064937246 5 -1 -6
730 1 20.78386980683708 12.195812093618983 3.517665935927908 -2 8 -10
126 1 22.564932905291695 10.409988815344525 3.09665977253652 -2 -6 -17
2564 1 23.709617707560344 11.124905357982676 0.4380190565259061 3 -1 1
3965 2 21.916405327132015 14.502815553386565 2.0796711094229554 -1 2 11
662 1 20.81210688672657 11.432998176201467 0.35883686697734557 1 8 1
3401 2 23.97959462125567 12.43064225090938 4.435263026899113 5 1 -3
2889 2 26.73507042024391 11.268418444601103 0.9476398005570457 3 4 0
474 2 27.912002536087133 12.240530867621155 4.30894490333571 6 4 -4
2059 1 25.418991402659188 14.18671649372682 1.002689793900963 -9 3 8
1419 2 30.864262966968376 12.917207444815691 0.31182326342433225 9 0 5
3880 2 31.46339386225074 14.080441130182717 3.136337272405518 4 9 5
461 2 35.17280161273325 12.617211723931582 3.1979248129213063 1 4 10
3883 2 37.502036341900066 10.92593409122871 1.0186347241994036 -5 9 0
1945 2 38.96492936882663 14.004489217100607 1.23384173449864 -3 3 -8
2439 2 39.80177764405918 11.421289776519156 3.852309398866551 0 0 0
607 1 42.64698301080395 13.106699488825829 3.253910264330744 0 0 10
1153 1 48.709960046137425 12.04981939694635 2.770776922418556 9 4 1
2811 1 45.70235604681417 13.242761025125784 2.91772891886446 -1 1 -7
3664 1 4.706770775540382 17.145836227612005 3.544954032270075 -2 0 3
3483 2 3.0818553238506325 16.549178364588883 1.348712914837417 12 3 0
1030 1 1.8320571040272602 16.238535495607596 4.472647686646161 1 -1 -12
102 1 1.5521509752012794 18.66093888889262 3.088611282430264 -1 4 8
3450 2 9.035943287351216 17.024903808043458 1.8042830527695304 -3 -17 -2
2831 2 6.588648278929353 19.166575431338384 1.3683244568825934 -9 -5 3
3056 1 7.164710070538197 19.6453651628818 4.61563328398842 -6 -3 3
3714 1 13.17967554373902 17.227281077100894 1.6073089234907254 -6 0 -5
1975 2 11.09929376283757 17.45883520751457 4.930192175566422 -5 3 1
2433 2 12.54459425420796 19.61655872915654 2.7111431923797005 7 -2 2
1489 2 16.678501750107827 17.65040969094006 2.18815604133399 3 4 1
133 1 19.43560762972118 15.317128556921523 4.427752404812033 -3 1 6
1879 2 15.404542832900011 15.920878537237108 4.532753461356276 4 -4 -4
2473 2 20.41435357381231 18.134726037027065 2.9312324155623877 -12 -5 7
1467 2 24.447885542017005 17.538655212298266 3.6416446101288904 -1 -1 -5
821 2 23.146980060558185 16.83133351262254 0.8448818992806874 8 -3 3
2408 2 27.392513898522648 15.118960571129495 3.684666643320907 12 -6 14
1378 2 28.495919822319024 18.77501679329205 2.247537028017765 12 1 -4
3578 1 29.169982261400737 15.27658694585011 0.3930152199275981 0 0 -6
3657 1 31.463481207729664 17.57097580246071 4.368358847199059 -3 -7 7
1760 1 31.240126090598306 17.421513660453375 1.3363681139130001 3 -1 1
2879 2 33.91816977968958 16.204921191963454 3.524588648336066 -2 -2 4
3848 2 34.12022760297756 19.499981097296597 2.3826827968280426 -3 4 -3
1987 2 38.8450084713497 18.199945933639068 3.179977351942763 -3 -7 -6
3444 2 38.19688795404104 14.966685655021823 4.092810485561406 9 3 -2
1356 2 36.48470888054497 16.40699589617216 1.3754539961583212 8 10 3
2686 1 42.63193073174945 18.89710455499161 3.6871673367225792 -5 -13 1
2890 2 41.817439878673426 15.951521014301493 4.7126849203777565 3 -1 9
1839 2 41.98035779532336 14.920842439008695 1.362804814108743 1 -8 8
2146 1 48.14577170842633 15.244558393628827 2.871155462825841 1 -9 7
164 1 44.7101354750376 15.367289370340073 4.22488176674026 6 10 0
2637 1 45.59136843699833 19.13457181234995 4.377248654889925 -8 -1 -1
2248 1 47.38994775726211 18.70832740078862 2.2191239962420624 5 11 4
2977 2 44.697610120942265 17.065137038952304 1.6040477442894971 -6 5 2
1128 1 4.210516679123389 20.335203643474646 3.3385334184899835 -5 4 -7
218 1 2.340067792478493 22.709342215622797 2.649067091347125 1 3 12
806 1 8.796139529386922 21.54578886098969 3.014303999983581 1 -20 -2
1874 2 7.954666836006839 22.260373318776725 0.05157934067130299 6 -2 1
3138 1 6.019064118338274 22.660641752213973 2.809537141181408 4 -6 8
3893 2 8.94971970867263 24.689074298806325 2.6338619247800863 -1 -7 0
1661 1 10.10755874870682 23.834220449399567 4.935905944797746 2 8 0
1699 1 11.853804790318692 22.452523611804434 1.8180192379801476 -9 -8 7
3369 2 14.981567574464062 21.974736447686364 2.960497340869843 -2 5 9
2965 2 18.019185691654833 20.934877033920515 2.273040412497753 4 3 6
3945 2 17.43671743194038 24.326144728534114 0.9524869642002536 -18 -1 -7
3419 2 18.80758009345853 24.194027935024693 3.8452304953924745 -8 1 -2
2495 2 21.71688439095603 22.394007312340293 4.456850699839451 -4 -9 6
737 1 23.74417914174721 20.850706638863766 3.085019336517601 8 8 1
1329 2 23.663690271871733 23.576833566984174 1.2835059916538274 -6 -14 7
915 2 20.458719499056084 21.79229604087359 0.7976012366515501 6 -1 -1
2956 2 25.05200459736802 23.24370908016302 4.439665959244153 -7 5 -4
847 2 28.305070116937475 24.249158619107348 2.091364391379263 -4 -5 12
441 2 25.993737809878272 21.57270940972594 0.4105409923899055 9 -5 -7
2753 1 31.451620125513347 20.5072430809932 1.8321287501649166 -4 8 6
747 1 31.67932362526005 22.8614212588068 3.5160532292214404 -12 -2 -4
3957 2 36.92363852461703 21.44693796727692 4.680553255144267 7 12 -8
3283 1 38.70545969969373 23.24818448281763 2.8006488734893935 6 8 11
2081 1 34.99945403234824 23.10640842420446 2.9910311395316795 4 -10 9
1246 1 38.473375764077204 20.49168851164464 0.9043949428117275 -14 -1 -6
590 1 40.05628213294879 20.605987359364967 4.57984114020226 5 -5 0
1612 1 43.28714922630809 21.284749189625877 4.286338796656038 4 -9 -4
1396 2 41.69261368239806 23.878980205556083 4.002340754303305 8 7 -2
2651 1 43.82727335697938 20.489370605965313 0.8106683813881475 -4 -6 8
2525 1 41.11793237059131 21.517502857858776 1.5613420019688207 5 -1 -4
1009 1 42.40777217974995 23.536836131978205 1.1303838310755245 9 7 -4
2144 1 49.118687694284034 22.103281432834493 1.0163886239459954 1 -4 5
724 1 45.90095135932001 21.90617022886521 2.4581790645746415 -3 3 -4
1197 1 46.435453246418795 23.700631152527166 0.7404845492672564 3 -5 -2
1456 2 48.70813833525695 24.50464217610093 3.83956481037307 -5 -6 -2
3117 1 48.76122040012316 20.737521263513525 4.145578229278348 -4 -1 6
72 1 3.104173531828719 25.252653891807945 4.721619641127936 11 -1 -14
1843 2 0.7101165566016792 26.99798954120222 2.1887764528962017 -1 -5 -14
835 2 3.8894759901658635 27.96479581215086 3.3521616537228183 -3 -9 7
483 2 4.95128607450317 25.418011121997296 1.1364007300894858 10 6 5
1410 2 6.533753172155684 29.33111864283634 2.8987825111746464 6 7 -3
3722 1 6.138084826796011 25.59225331768527 4.433236412298599 2 11 10
1465 2 9.402534548247926 27.96234425093691 3.532106626059233 5 -9 2
2504 1 12.416415255128594 25.38712204644589 4.1632981804195595 7 7 -16
3209 1 12.193910182109644 29.380895639575247 0.5114342836904894 4 -2 4
1617 1 14.41910795388184 25.113846874433666 1.2494185259187118 -1 0 -6
886 2 14.208692804534158 27.885590082549157 2.4051490411139356 2 14 -1
1504 1 11.11604865559036 26.66191945303646 1.1195995800557688 6 4 8
237 1 17.389850223581462 27.57171285986444 2.2318405077695873 -5 7 -1
2096 1 15.995296463311481 26.046130362041453 4.1062786955397925 16 -9 1
2298 1 17.040489963658892 28.6047854663991 4.761364714617619 0 -1 -4
625 1 19.856031488356912 28.56198436514277 4.916381851239403 -3 6 -6
2214 1 24.64043638448067 26.727592390454106 1.3487625452930043 5 -11 4
1285 1 23.045171852352773 29.094344756083686 3.608807501135579 1 -2 1
1251 1 20.57401134471398 28.092489107878748 2.64515306413317 -7 -4 4
3167 1 22.436447302497694 28.6606942085025 0.367615257990135 -3 10 -1
3497 2 22.486236458614677 25.694073172945224 4.433182777111701 -4 3 4
2705 1 20.47669036419002 25.286082244210654 1.463107890092652 14 -12 -2
860 2 27.86334812644783 27.92773846865875 1.135603425352982 -4 3 14
2883 2 26.64424184060327 26.593697896444883 3.4960957602612144 -3 -2 -2
296 1 25.027272943427796 29.343080669492927 0.7596862262002296 -4 -2 -6
2054 1 33.50867020214996 25.434758653804522 2.89936244811706 -13 -10 8
3804 1 30.901290259236614 25.76560855862178 3.3929497240884112 -6 0 5
47 1 32.61823139131165 28.90702245087285 3.9354937646491255 11 9 -5
974 2 31.46471771628034 28.467053250290622 0.7872345659302276 -4 4 -3
1828 2 33.60310181998605 25.82180150513401 0.028782428851927548 1 2 3
3856 2 35.00610211605367 29.121856363075374 1.145940982388782 3 -7 11
113 1 38.19950039551501 25.804562399111543 4.218938700397678 0 6 1
2560 1 36.538497933516325 25.93445059120062 1.6445679028545022 10 -2 -7
3135 1 37.4597420665567 28.191975672176326 3.39187896172403 -3 1 4
2548 1 40.85090216047161 27.697624777708327 4.422599101983871 -11 1 6
3392 2 39.80944683240768 26.00332863177884 1.6535848860191185 5 -8 7
2491 2 43.56751496721341 26.868300699238393 1.0223513627757441 -7 -5 3
2135 1 39.826199226214904 29.480442701904753 1.270305059318894 -3 9 9
1211 1 42.454301893607436 29.59667059728933 2.3243182375672564 12 6 -9
3632 1 44.875563490547236 25.262668580299362 4.762261246303979 6 7 -4
3370 2 46.85594240604538 26.682866375979934 1.4330068125038882 -12 -6 8
3287 1 45.54024483134779 28.616483695128654 2.8850045070138903 1 -3 9
3771 1 46.18449098066005 29.428552166095507 0.17814331523390764 2 2 -1
1747 1 47.23400010786543 27.254096742208933 4.358741775140399 -7 1 2
53 1 2.624003555609826 30.83693906559838 2.813193622661486 2 0 -1
1925 2 1.8409023416485646 33.494659380845036 4.542267917281292 -10 -1 -4
970 2 4.708381625911265 32.99345633943357 1.1062223756461094 2 -2 1
3373 2 9.049378389901115 29.96116379108342 0.8698025183913229 -10 2 -3
1348 2 7.8482447259747765 32.24107018220922 4.163657863686062 1 -4 8
2098 1 14.737143545874929 31.320267384035617 0.19837083840657593 8 -8 -5
1386 2 11.74330850956204 31.5314414026519 3.1014442658549646 -5 -7 -3
3366 2 10.98317988180582 34.55260847685502 2.0074626500771133 4 -7 2
980 2 14.195697114220334 33.92983764055061 4.023420605063317 7 5 0
165 1 15.125934840042454 34.209707659383746 0.8506396485090313 -8 -3 3
3681 1 15.556533727188906 30.386692066818462 2.6871470562796698 -11 -7 -16
1782 1 17.30411087840612 32.84925058917837 2.263135595308586 3 -5 1
3665 1 18.987902495152394 30.78990879489961 2.49186074065471 -2 -2 3
1805 1 19.187684587773184 34.33444681042625 4.5280388075387155 -4 12 -9
121 1 20.141903115748814 33.05411491155314 1.5722664629926932 -2 -7 0
1025 1 20.605711323040154 31.35688779910335 4.482911821736092 0 -2 -6
30 1 22.469730909722944 34.25748306342948 0.33975526220230556 0 4 -5
1645 1 22.311380938453116 30.765285159119426 1.8179626774141668 -2 -7 10
1660 1 22.920927851465425 33.87026788828201 3.0651598732499687 4 -11 -8
664 1 24.233481416725777 31.836160206069888 4.783667807118931 -2 5 -5
2078 1 28.14916118866194 33.83952101232838 2.988240632400357 3 11 6
2038 1 25.69265705877908 32.16210710565697 2.30726121981671 7 4 -2
2726 1 25.6173483603372 34.58447483663764 3.875512693552393 -1 2 -1
3192 1 26.27018324746356 30.153306661854067 3.5881944729682695 9 -2 6
1402 2 27.734853039355947 31.320048750420675 0.45004998519010864 -3 2 6
368 2 30.248704597918607 31.325481667286663 2.594491543829002 10 5 -9
3884 2 30.371093120579843 34.17172364470286 0.26100503735724917 9 -3 1
2751 1 32.83160483844518 32.16546125564508 3.3305495457695935 6 12 2
598 1 30.87862395260674 34.5601736349899 3.750568523731214 7 0 -3
2360 2 39.234311872915605 33.28412427046998 1.3177623134310361 4 -4 5
3159 1 36.99372205935276 30.87444708064783 3.2694970737360864 -10 -3 10
913 2 37.00949106705708 34.06884007479548 3.745049674800798 12 -3 3
1585 1 35.48903501623865 32.62754023936371 0.8617762816582759 0 4 -10
3662 1 40.230683908121264 30.41196322861289 4.790431643011981 5 0 0
2103 1 42.792105547547386 32.218278703681406 3.847509628967854 -3 2 -6
1244 1 41.79368065509363 33.33901873377094 0.2957186347410398 -5 -1 -4
3378 2 40.47257413735291 33.979402033458406 4.5030998759044225 -15 -7 -3
194 1 44.7331791234922 30.181942001435882 4.653896000730615 -3 2 -1
1577 1 49.18516842322389 30.50153291234135 3.5961632210320547 3 5 15
2845 2 48.76686870557821 30.94462274750078 0.5840156972073062 1 -2 -7
729 1 46.640438829135874 31.965330514042527 3.513605865903127 -1 2 -11
297 1 44.6950924816032 31.976574561873626 1.2933750697212354 1 2 8
3218 1 47.99624967795751 33.56458046442723 0.6605958489889073 4 9 8
3879 2 4.390742646298781 37.09426388893877 1.5173677949097826 -2 -2 1
473 2 2.055184655572638 39.19847893841076 1.1207521674393286 2 0 12
3440 2 2.849977513591611 38.009080488243626 4.5440878812564085 3 -9 8
1499 2 1.3945128882246678 35.71664276580241 1.9389015232956115 -4 -6 -1
2435 2 7.89670181602051 34.80531759390655 1.0078456648494598 13 -1 -3
2427 2 5.930184144922737 34.93354417657017 4.202355979780198 8 2 7
2243 1 8.777600722247547 37.411811313694635 3.2578804170321516 -10 8 0
783 1 5.9777169047030565 38.476407197858364 4.1396064592577275 -2 -1 -5
692 1 12.163675184977139 37.26930197580417 3.440241105504605 -3 0 -10
3674 1 14.497118752805275 38.44192343485758 4.727676215052726 -1 -13 2
231 1 12.53544857086446 37.01115604323859 0.06142936293274647 1 0 -3
2239 1 10.167378810335455 38.19021516035033 0.4753785933448975 -10 8 -2
280 1 15.422192521328027 36.76244688386813 2.291609499731786 -4 -5 -10
2756 1 17.867950474610318 36.61759982079822 2.2992128153989664 6 5 -3
2557 1 17.032915717675824 36.97778469453906 4.888521959717514 -14 1 6
3050 1 20.570759083095922 36.04977673270864 1.9329722872575892 -8 9 7
3819 1 23.326675091312985 36.54834653667731 3.5802234775808217 -4 -6 -4
101 1 22.03915563594117 37.911014934208744 0.36070694232228195 -3 10 -8
1010 1 19.775454345454357 38.879973694104535 2.556542456357873 -3 1 0
2902 2 23.86618734538988 39.44408801401355 2.594590698210028 -2 1 -5
357 2 28.44005685983729 37.394761275128765 2.7504125495289187 8 1 3
3195 1 25.83135361133736 37.63597258031043 0.695112242615389 0 5 -12
3115 1 25.617968317355224 34.7894237980987 1.3596654645110773 2 -8 -4
2015 1 33.212742782763904 34.76906633923265 0.24674002310421894 4 11 -1
3187 1 31.147330030732142 36.67516245240131 2.2026308944781 -4 -1 -3
1609 1 32.573016080681235 37.37899077410639 4.872421435184687 -13 11 -2
1709 1 33.81410443165269 35.02581740753239 3.2708027213356266 -2 3 -8
1147 1 33.76749040865029 37.47080394343114 1.9108431714009486 -4 0 1
1235 1 39.48485190936817 36.626565467370106 2.881870537838877 0 1 10
1249 1 36.66765830103767 36.276783424430064 1.1443165969424962 11 5 11
1682 1 35.52950531124088 38.02475986905256 4.678723927570013 5 12 -7
3793 1 37.69090472163179 38.65528504638373 2.838758086319733 20 -6 -6
3630 1 42.70867394976709 35.036078849961946 1.9238735124863287 8 -15 -8
2505 1 43.133255306723555 37.794772145392464 0.9162971265972959 -10 -6 0
869 2 42.5950692816742 37.1515555697741 4.617130781221801 -11 -6 -4
1002 1 40.00464895544595 39.17644505350669 4.8901188601653 -2 -2 3
3221 1 39.614534905109416 38.53526005458593 0.32804450917029243 0 -10 1
815 1 47.6281234469387 34.64643578747169 3.2079896578608613 -12 2 -1
1811 1 46.189264975059366 35.49054324756585 0.35836519619860613 3 -5 -1
3006 1 44.622415093791965 37.57274777184831 2.963351682492601 2 3 10
2922 2 46.95439448272415 38.53954195877587 1.050519018197984 5 4 8
999 2 48.43043862573703 37.89386555533635 3.950833425843419 3 -9 7
1607 1 44.76224532832922 34.841119356080206 4.314343682656625 -4 7 13
3977 2 4.858742223643117 40.663397809640266 0.9924302716073886 3 0 5
1906 2 2.530815874869025 42.30719859137582 2.8760780640621095 1 3 12
2932 2 0.4781015770506182 44.47165062839899 4.7154675124383 -1 2 -2
3947 2 8.038188646344784 40.50356308150674 1.2302400208088218 -7 -6 2
2998 2 6.952364661867078 43.034374396755396 2.8095174982545204 -2 22 3
2040 1 13.046457753380345 39.584478273874055 1.3256935770419325 1 1 2
2374 2 10.913508133499072 42.44071926183962 2.1174414711569356 -5 -8 3
594 1 13.498876551443654 42.22939431990108 0.4743303909262166 6 4 11
3721 1 13.297760437942246 41.261339396903395 3.6080823214068984 6 4 -13
801 1 13.551073439963158 44.04345497546583 2.775359125507061 6 3 -2
2573 1 10.305376391061788 39.6105010234541 3.647378188866682 1 -1 1
2955 2 16.520180608074433 39.82793273069795 2.9002415986082046 4 -5 2
2161 1 19.007110810839027 41.46294088800648 2.333895266899974 -5 0 3
1024 1 18.82964324432156 43.734167779054616 0.6830187567877773 -4 2 -4
3710 1 16.61399692572501 42.967002498434766 3.7409202577380403 13 -4 -8
538 1 16.02606432937077 44.03938672007736 0.49578416700268807 2 16 8
171 1 21.741426422231992 41.1085634213256 4.027662009647038 -1 -6 22
1190 1 23.742816188298562 44.02382116208792 3.5323169553688474 -1 -13 3
2006 1 20.2066496659373 43.946990914972396 3.201400746368712 7 0 0
2085 1 23.171144161820546 42.26626630272843 0.22156526303440507 -3 9 0
1698 1 21.977946845521487 44.26638205856347 1.1236840599670959 2 0 -1
1122 1 28.969539267828562 40.50509271497983 1.4293224398735422 0 5 0
388 2 25.920611624437722 42.57387022926851 1.6053155025971566 -3 -4 2
3414 2 29.519140620997018 44.27300503184801 1.253601836588136 6 2 -13
3765 1 27.161074640743703 40.41873606509116 3.7843947770769826 9 -8 1
778 1 32.08856558910873 39.66798916354503 0.9454478248399053 2 -6 -3
3691 1 31.61723151682858 42.7745301404016 2.4332737279570713 -1 -4 -4
3739 1 30.6541434276247 40.08144942209253 3.7558235653621193 0 7 -11
3109 1 33.922552936021376 40.158296833039365 3.6376426749958473 -1 -3 -10
786 1 34.355015653086866 43.68938998825368 1.6236625235812412 2 4 4
3199 1 38.48078711288441 41.043181863731434 0.671063499623645 -7 11 -2
3104 1 35.47242902375853 40.64560037282753 0.9662793351771182 -2 -3 3
2583 1 35.75489906895724 43.33062462669334 4.112475829187253 -2 -6 13
563 1 38.98778838058443 42.365341719528246 4.164535695773957 11 11 4
3738 1 41.30096763391414 39.933476167645665 2.1715262593833864 -3 -2 -5
3009 1 43.06929396727406 40.66738563618459 4.667881887753519 5 11 2
2574 1 42.98334898203373 43.005730525189826 3.057729997945628 4 7 -10
2200 1 40.945160336842605 43.02317996004052 1.3545954164342773 -8 7 -6
3517 1 44.10911962691427 43.80486610553433 0.56118471359057 0 -6 -9
540 1 46.14980303815223 39.713400181032675 3.991534037641319 4 10 13
2567 1 49.26158626137596 40.99917893996281 4.40323090827602 -6 0 3
571 1 44.777410479677066 40.86066358199738 1.6914165398410543 -2 9 1
2616 1 47.11123608242231 42.67375851947493 3.5881965161010942 -7 3 -5
1498 2 47.76823849333727 42.208132536416564 0.13677343035201442 7 7 3
1426 2 4.011349120933229 44.75215930932534 0.20046034290483594 -1 4 0
2771 1 3.815287596207517 45.867985490434144 3.503156468411681 -2 1 12
362 2 2.5448455546708337 48.47907338267675 2.4270266700244294 6 -5 -2
866 2 8.616570553693567 48.54351484953217 2.4637147356882987 -1 -1 10
445 2 9.794773852576679 45.562819486802276 3.7580561866917543 6 -2 -9
3325 2 6.897286947605136 47.067562173726444 0.2653101871273491 -8 10 14
245 1 11.902610848300768 47.401670518106165 3.055676320840058 0 -3 1
3731 1 17.611956908295376 45.416644194167425 2.8316538665629705 1 -9 0
2132 1 18.65026391211864 47.777933623458566 2.341586333433034 6 2 1
541 1 15.351310924629471 47.032860680303756 2.3257208961387192 -3 6 -6
3205 1 16.165040469713716 49.04925027100875 3.8860699780002963 7 -8 -9
597 1 17.805932558607086 47.28157531738726 4.871954483167968 3 -1 6
2213 1 21.76951019880035 49.32749254307769 2.0840738288608436 7 0 4
2647 1 21.543998775861656 46.55149491242652 3.4381119637005955 -4 -1 -4
1522 1 24.42515886896084 48.464696894937354 3.6534195760082104 -11 -2 5
1115 1 23.413278192079677 46.32777184477399 1.4054871350139286 -4 -13 -2
3252 1 27.169241078253705 49.38896640663294 3.5001572920306434 3 -1 3
394 2 29.575216788998073 48.00080261539764 0.3605555976636815 3 14 -7
2492 2 26.79622456418805 45.73371675163033 2.134383808676993 -3 1 -3
382 2 25.65359625822943 48.67416429440654 0.24170505142439852 3 -4 1
3200 1 33.50470611542194 45.41526274165082 4.685016133973667 -8 -9 -8
414 2 32.88715582110368 49.31192767385142 2.387016029764881 -5 -1 7
3648 1 32.83149514013148 46.137665453860095 1.7376171064277899 -3 9 3
1952 2 30.532528055822752 46.377664018918104 3.915307653980655 -6 0 1
306 1 34.81330512279324 47.96307240361226 4.287391824777679 -7 -7 -3
2309 1 35.56411240767184 47.42796947051963 1.760184421505596 -2 4 -1
1615 1 38.06369192743603 44.79932647753802 2.165186303646063 -11 -4 1
3795 1 38.08284577712741 47.456984962380645 4.506273105325751 -8 12 2
1076 1 39.27607398277643 47.83223324129996 1.1900194596120484 -6 0 3
1798 1 43.493448435998715 49.39635764897327 2.706070933961274 0 3 -7
1774 1 40.84681989385103 45.30993536887142 3.8662825285516425 -3 -5 0
3603 1 41.443809504750035 46.506870429467526 1.3151541656756238 -10 -5 -7
1262 1 41.60134649594075 48.10560346574421 4.561574104607726 -9 0 -4
1161 1 43.656292301477116 46.277076346443046 2.799115627805691 -16 -10 -13
2645 1 45.65999290027588 44.55170677956123 3.0360857191009676 -1 -6 -3
2487 2 49.377988427215364 45.60396992423434 1.6434298908520502 -8 -6 0
2514 1 45.360415721567755 47.956772748379244 4.4470792029267665 14 0 -4
2898 2 45.14905554434593 47.0438338108861 0.2413523447076279 -7 0 22
2469 2 48.29222208033235 48.822524805045255 2.210301876230822 13 -1 1
2701 1 0.8829028576196728 4.594585955438538 6.936510030148494 3 -3 -8
1700 1 2.98952039922678 3.019051557851098 8.618916141575596 0 11 5
448 2 3.8074593952222315 3.7141054207052426 5.264911109536255 -2 0 -1
2092 1 1.2606590938892919 1.0327259496509973 6.851416719618455 7 3 11
2049 1 4.723630182502834 0.9822417871973188 7.104312988191046 13 7 4
2446 2 8.254793333697755 2.9681603782663144 5.544453997829696 -5 -14 -10
3331 2 7.571397218735056 2.1503434279615616 8.833205783629367 1 7 -5
2107 1 5.814120290632082 4.738928727522424 8.018189489385868 4 3 -8
885 2 12.52501216161437 0.5433845877170917 5.332194260111138 2 12 -3
2398 2 10.866512625869051 4.760048744788702 7.914563717963474 -5 3 9
144 1 10.786087301147465 1.4120792069138708 8.26380173110029 6 -5 -3
3271 1 13.828934578753568 3.409920908962823 6.776080089321502 -5 0 11
1570 1 14.800955669821004 0.08382898892551013 9.002288803057038 3 -3 4
577 1 13.23958484601597 3.0082004092922308 9.819781448501208 1 9 3
2308 1 17.066004391801375 2.335710475944491 5.271942964542353 5 -1 -1
420 2 16.409500813670984 2.563373436968832 8.852573670085379 -13 -6 6
1236 1 20.05888024020971 1.9007284909359023 6.41693408427871 1 5 -2
3543 1 22.6577182645998 2.302769252424111 8.072306504806635 -4 -5 -4
1385 2 21.803550719686655 4.6948710801974505 9.622365265759427 -1 -5 4
2003 1 27.516588123549905 4.141599826080872 6.574032193909522 12 -6 6
352 2 26.041135284199967 2.8222811480603083 9.075883438771415 3 -6 -6
1078 1 24.896755812961757 4.195588123310616 5.762534484522475 12 7 -1
2114 1 25.516948676953994 1.1824236057521686 5.59056395311684 8 -1 -1
1908 2 30.481508308891442 3.7681171821144934 7.901938768807245 -5 0 8
1981 2 33.694792259918515 4.137283709096372 5.892336239538021 10 1 -5
35 1 33.205188835338106 1.0628474385374842 6.349221138059202 4 -4 5
1447 2 34.97297467445664 2.547717763554944 8.47806115318601 0 -10 3