LAMMPS data file via write_data, version 2 Aug 2023, timestep = 10000000, units = metal

4002 atoms
3 atom types

0 49.42095145851651 xlo xhi
0 49.42095145851651 ylo yhi
0 49.42095145851651 zlo zhi

Masses

1 6.94
2 22.98976928
3 14.0067

Atoms # atomic

367 2 1.9660404102796951 4.024204491973506 3.623286921822978 1 0 3
3492 2 0.45491622212177213 1.043770236542728 1.135022595387187 0 1 0
1822 2 3.972219423484587 0.5952850916955396 4.606698715184617 -1 4 -2
3828 2 5.177975770348292 2.540720412968872 1.03849429687368 1 0 -1
1300 1 6.975601607200857 1.5988050380863947 3.286937281449462 -1 2 -1
1624 1 8.128384752972469 2.710089702655666 0.42251992334910676 0 0 -2
2134 1 7.59075240091809 4.642027484330474 3.055852648204194 -4 -3 -1
3268 1 10.607167479144065 1.920946787342206 1.8692467832748059 3 0 1
2621 1 12.75363048140294 3.4220335980856267 1.3975791738003025 2 1 6
2110 1 12.34493158492012 0.6646678688434711 0.03423926516889253 2 2 -1
3138 1 12.888085231712788 3.316707380407809 4.886333762001352 2 1 1
3605 1 11.566197702549223 0.15079520160348975 4.300881176081619 -1 0 0
2731 1 17.53352158751591 1.6540680570648825 1.3904741030623655 -2 0 3
814 1 16.11011483741603 4.911928344846626 0.14217594454260182 0 -2 4
2260 1 15.658647831675403 3.5000882111015432 2.581442954298422 1 1 0
1661 1 18.510259100681996 3.5808214504737483 4.868742929060202 0 2 2
747 1 20.2825759298227 2.0628779215932425 2.8268391036573135 -4 -2 1
1772 1 23.397833604256437 1.9868821021236045 4.67199128146212 0 -3 2
2219 1 21.67862988790555 0.5028859064263366 0.26364922563753673 2 -3 -6
3525 1 23.247848233250675 2.7750462796459536 1.0039153706985886 -2 2 -1
3557 1 24.61525408895346 4.82456069721708 3.3209074335997384 -3 2 0
2707 1 21.28104963357262 4.689804793173289 3.6318028973137375 1 1 -2
3151 1 26.05537078444978 4.018131058431712 1.340068902688012 2 -6 4
748 1 26.269264883847256 2.0967029450172867 3.23503518095487 1 -1 1
513 1 28.310811092343073 2.0344537003933856 0.4875810215533101 1 -1 1
551 1 28.640531865137827 4.870025467154415 1.389084869124021 -1 1 -2
753 1 27.64933344860784 3.9022355017781574 4.78906330182008 -1 -6 2
311 1 29.730513030809412 1.5498628656063012 3.5199074586375514 -1 -2 3
3035 1 32.34816677368964 2.119198839607925 3.9858541876075466 0 0 0
1224 1 31.088878572558706 2.851343377219881 1.4000625935307007 -3 2 0
1971 2 36.56137050706493 4.027957083710596 4.088845251700053 1 5 -2
268 1 38.71437193112307 2.5012482305841557 2.1867954338501017 1 2 -2
2448 2 34.7098089005114 1.069997004005016 2.320328767656202 3 3 -1
3832 2 37.80193120862973 0.3463603121065437 4.2636041637373046 3 3 0
2699 1 36.02245525757039 4.090671367287497 0.5176155930622669 0 -2 0
1610 1 43.31337515299912 1.5908104259157716 1.4528190892028077 2 3 0
3132 1 41.41192871473188 3.448261931640189 3.9089171223392185 2 -3 -2
2838 2 44.47095020922812 4.263995721346774 0.7268843894782444 0 4 -1
460 2 48.74380027205344 4.182586884193595 1.1586307647777365 -5 1 4
1889 2 46.49457320472493 4.213968726996508 3.217148382761069 -3 -2 3
675 1 46.63970624469465 0.8774680227368591 2.7067635109951835 -2 0 3
3692 1 44.5268773845058 2.6917338935898725 4.740592011036191 -3 1 0
3308 1 49.057084933605125 0.1534150100328741 4.150365248767758 -4 4 3
3888 2 0.0011454166826325718 8.248533331805694 0.28274908409058985 2 0 1
1442 2 2.4133882162395555 6.1076170372496215 1.0349069846740822 3 -1 -1
564 1 4.488807644629514 5.845239549688042 3.8025784141181522 -2 2 4
684 1 3.5110820915095773 8.906778658539086 2.388375576131568 6 -2 0
2189 1 9.265940175343065 9.31736643121535 2.469660923671438 -2 2 3
1562 1 8.512279351580476 7.17829053357099 0.5924182801349683 5 3 -2
688 1 6.944909118807497 7.798670994340595 3.4366184453625013 1 2 1
3321 2 10.44897695801257 5.413576681401156 3.963583317258539 3 4 5
3548 1 10.356630410635601 4.979564610775271 1.1193272102986396 1 3 -1
1150 1 11.955224881937406 8.12462807090206 1.9243346983808904 2 1 2
2243 1 12.932743940846787 5.804505862842434 3.0193420439750436 -1 6 2
1284 1 10.322126034562332 8.324513366780161 4.762906407221114 3 -1 -4
651 1 13.460238573800531 8.395110796901166 4.826892809875669 2 1 2
558 1 15.074991768973359 7.241937607394347 1.4999703507831745 -1 5 5
1972 2 18.50298808194194 7.969794166734975 3.15623435640497 2 -1 -1
196 1 18.616481957766265 5.073212035844656 2.092966281167448 0 3 0
1277 1 15.227958127879367 6.042476267475893 3.8365567272389205 -2 -3 -2
3092 1 21.930296143084107 5.597219812772615 1.0763804244186794 -4 -1 -1
994 2 22.989784125344794 8.106983704080118 1.4665848403842434 0 0 0
8 1 20.47103768202646 9.342188810539248 0.7248956451270206 -1 -3 2
1331 2 26.36335239846288 6.904718934186361 3.3121177872915033 3 3 2
1744 1 27.977677667039607 7.745118109078662 1.4639555771299548 4 -2 2
2030 1 30.9237712585536 7.9149793126943235 3.9414201281223935 3 2 2
2069 1 32.87519811265101 4.977089219865905 2.3168525068620553 5 0 2
227 1 30.552423429346582 6.3548994468884255 0.17299260022195215 0 -3 -4
2390 2 31.387390496335737 9.257256375151087 0.8178170101225337 3 -4 1
3483 2 34.340194277197234 8.305110451338871 2.8544376598975814 2 -2 1
2036 1 30.709837032746485 5.165960556376334 4.690162038600736 2 1 -1
144 1 36.82296309033104 6.416120448998201 1.5156092528569198 5 -2 2
2961 2 37.51660129991986 7.488513692845295 4.6349865793589755 1 2 1
1718 1 40.096303839536866 5.645730814719138 2.52099375479768 -1 -2 3
2063 1 43.02803285565288 5.864521575355 3.860838479622338 2 0 -1
2481 2 42.60261854984873 9.32492845391473 4.6667232302720105 0 5 1
2123 1 40.61273360101942 8.897909170662517 2.1403136082833485 0 -1 0
3787 1 40.45964280429574 7.389278321755976 4.876365892819296 -1 -3 0
2980 2 44.64847590506306 7.124889819439986 1.4798961746683905 -2 0 -1
487 2 49.09536599076359 9.029293349769269 4.4708264895691965 -1 2 0
2940 2 2.1049015792263592 10.945974684947863 4.046734230364267 0 3 3
480 2 0.045495617720490704 11.910555042406104 1.6260449182557288 -1 4 0
2105 1 3.907786344990322 11.35686029580514 0.9571236063527049 -1 0 3
3524 1 2.681220375673823 13.521790158983999 2.3971655188738765 0 -5 -2
2096 1 5.722044221738219 14.037781799327698 1.5694079967600554 4 -4 1
2713 1 6.3296273065846 10.508941368023281 1.3416386262880822 1 1 2
3626 1 8.630214507264771 12.369114086536838 1.6990600673464804 -1 2 0
3402 2 8.399942679045699 14.519373815475536 4.824923354870543 2 -1 2
3014 1 8.725599696722519 10.751718274829763 4.681813396525529 0 -3 2
1555 1 10.871882838758728 11.308095986389821 0.224379699659686 0 1 0
2498 2 12.389411677389065 13.549966742634071 1.5252506370056016 -1 -3 -2
5 1 11.657623468505276 11.369385976381349 3.7489686816109087 -1 2 4
2229 1 14.259716578749208 10.082647741122168 2.1004208861518543 -5 1 4
1015 1 14.565934344311025 13.038899715966537 4.533846001693709 0 -2 -2
3510 1 15.959501682997942 10.186638274341982 4.490420334650376 2 2 1
3255 1 17.71229523535383 10.615311565598992 1.9192313628841455 2 1 2
2874 2 16.354923364887615 14.437698721409507 2.31032233596783 0 0 3
3462 2 18.903444561131344 14.244424927231018 0.16759461935392628 -2 1 -2
334 2 24.22120222832803 14.284960125067466 4.334461362696833 0 2 0
2922 2 21.5127770255062 13.11474263472909 1.8783301549138505 1 0 1
3897 2 23.37600707776694 10.987954148306379 2.7612664595329277 -1 1 4
771 1 24.517920632072112 14.179059634004679 1.0860991983962787 0 -1 2
1466 2 20.18531058869454 14.747023939976062 4.398225484685346 1 0 -1
2917 2 20.464020483217887 10.647870886746611 3.702468174538303 -1 3 -1
3809 1 26.204345443586913 10.271848777605424 1.6118314128752296 -1 -2 4
204 1 27.552793416723695 12.883442287905503 2.7155776300753303 -4 2 1
1582 1 25.469193982272614 9.973889708591893 4.799221660046086 0 0 1
3812 1 28.574508600662167 10.154611860854033 3.2107045676942083 -2 1 0
2022 1 34.32233143702155 11.566108864600631 1.3996759418212736 0 2 -3
1807 1 29.822990763338016 12.23068832308581 0.8375590121508284 -1 -1 0
98 1 31.832852149278867 11.715050256497237 3.8013393975387886 3 0 -1
3265 1 32.7633431117442 13.4382131358093 0.1659720921326603 1 -1 1
3542 1 30.307412516489656 13.827294236534517 4.388685322086064 1 -2 4
582 1 38.9819442271543 10.18872500132022 4.7448699131174745 1 -3 4
65 1 37.42779972416412 10.15110394004393 1.8969999619605171 2 1 -1
2805 1 38.22701749617112 13.349195266309934 4.000071967929418 -2 2 -2
522 1 37.17696393088942 13.24800673168271 0.6516091210935904 2 -2 -2
3518 1 34.68818178635459 13.739846629856883 2.6523518436035713 1 2 -2
3236 1 35.69265564384195 11.433557360050935 4.544122912376902 0 -5 3
3152 1 40.40655154630345 11.987023039644901 2.4048423484599257 -3 1 1
1658 1 43.66137009781352 12.2339167071555 2.3801662387059883 3 4 -1
1569 1 43.118670647212916 14.641072554518425 4.321142969795025 -2 -1 0
3352 2 42.32161838334331 9.903513204509082 0.41969919871588085 2 4 1
1338 2 46.00653759451646 10.314623168485554 2.1185099621056804 -1 0 -2
1081 1 46.954298919954056 14.41285229791895 2.643199648674479 1 -1 0
2427 2 48.34725420505713 12.45204255618247 4.810540144948409 0 1 0
918 2 0.5967547664298748 15.62587640917989 1.167819721038927 -2 3 -2
1352 2 4.394945940511838 17.363648314945813 1.7437931059498606 0 1 2
3291 1 1.8370834845183968 18.924681703994196 2.3002783883250633 1 0 -3
2712 1 4.2644961656076 19.765803865246344 4.249750325419592 1 1 0
3769 1 2.0758835665162945 16.470480006822644 4.481526729708357 -3 4 -1
2208 1 1.1493537157113305 19.583807418229604 4.936381923975784 3 -3 -2
3221 1 8.835012148209675 19.173735427811717 3.386269217658951 -1 -1 -1
2083 1 6.734984805251219 18.076874135653885 4.643671442523065 2 2 2
286 1 7.625923044157135 16.11036080782559 2.0905125530262216 -3 2 3
1274 1 9.460460054953783 18.997961609470572 0.13868425543107707 -3 -4 -1
209 1 10.27957713240866 15.38467260630317 2.620134441285659 0 -3 3
3998 2 12.987744230247948 16.556184255506004 1.963120028968827 -3 0 2
3910 2 11.982956694760945 19.683753105173153 2.071599560099404 2 2 -2
3580 1 13.325161120996388 18.822769453989704 4.5630814402535 -4 -1 1
1141 1 15.512510611929846 18.851650688746275 2.535313909664318 3 4 -1
976 2 18.589057533201576 17.954487266329675 2.7023131208049986 -3 1 0
630 1 21.99668055212946 17.8466808005577 4.550592550299354 -2 -1 2
1667 1 21.31016150806139 19.58606728332144 1.6222067164562142 1 0 1
358 2 22.68536459970975 16.692698753908207 1.564862097941806 -1 1 1
1748 1 25.30068904567974 17.635691831800173 3.5604676798172865 0 0 1
840 2 26.609715419793773 18.35398964865553 0.40892153505623363 3 5 0
3819 1 27.169902689251188 15.873177567317468 2.018257562620009 -1 -5 1
2524 1 30.17684280732256 15.246298340691414 0.8357644202141037 3 3 -1
2174 1 32.1709581437583 15.56997844283621 2.798044349666198 0 -3 -2
1777 1 32.99755249221067 18.535847110478134 1.4149718076743611 -1 -4 2
1920 2 31.181720529555104 19.27487891782916 3.975947437264045 4 -2 1
2156 1 34.357180696861974 18.078726569799684 4.102916506632008 -5 3 -1
3491 2 29.95577483973395 18.21358430619182 0.6368816750444696 1 3 -1
2569 1 36.17799203985037 15.457535364702467 4.506205272717084 1 -1 -2
2632 1 34.94426636189772 16.201794296441847 2.0852561490519 3 1 4
46 1 38.12133320380719 15.996741671920125 2.5677603897597097 -3 -1 1
2158 1 36.433206881279375 19.005997760408242 2.3835291584516747 0 2 -1
1793 1 40.8091305260645 14.833560897875685 3.003013026052206 -4 -4 0
3890 2 43.49838066117548 15.522063157465372 1.2547146010746084 2 2 5
3162 1 42.97585826572847 17.777578869180765 2.85867466116198 -3 -2 1
1053 1 39.72064651932205 18.6359501346531 3.0670860515957403 -3 -3 4
2526 1 40.76247868739172 16.63484327255861 0.994871930690996 1 0 0
855 2 48.47714071261269 17.70629728492467 3.6811759977870255 0 -3 -1
1924 2 45.830157213695905 19.224956674596474 1.2984090801573056 3 -1 4
62 1 2.6101775231647326 21.43375423936841 2.428022447843692 1 0 1
663 1 2.0642099652682373 24.235022254077766 2.27021140549687 -1 0 -2
4001 3 3.741812399724234 23.125943120176316 2.384031774935181 1 0 1
4002 3 3.3231410003972184 22.80337460534665 1.1727837352508064 1 0 1
1181 1 3.6356469173468278 23.25464839812158 4.352042228680153 -1 1 2
2545 1 1.3123433447156803 22.929414622511405 0.2814872493536455 3 0 -4
733 1 5.087793345191362 21.88259895590352 1.5547072302749707 -4 1 3
1245 1 6.90818181978301 19.928985886992745 0.5931305775644479 1 6 -2
3695 1 5.563735392003245 24.258462475417158 3.1099069616935107 -1 0 -2
1062 1 7.229178023603665 21.792475374620526 3.7269103377846364 -4 1 0
1157 1 8.788060131128203 23.996525631371075 2.376694355536234 2 -1 -3
1183 1 9.293410876335011 21.41028555719501 1.3938502178483707 -1 -2 3
1520 1 7.3239079066033055 23.453558860363742 0.020974339346097562 -3 0 1
1179 1 10.042860438060224 21.952262690129654 4.4575560085407515 5 4 -2
2795 1 14.233230538036619 22.048559426959038 3.161043657129459 2 1 -1
3632 1 11.642397647142133 23.944006091323462 2.273393661078203 1 1 -2
2798 1 17.854286963030432 20.488380012050193 4.5169762173535295 -2 0 1
3000 2 14.927152834093128 23.523764120811975 0.2558802320886309 2 -1 4
1039 1 16.964565878456714 23.406772158115153 3.0738508281320436 1 -1 2
177 1 18.607288093650457 21.519582041252608 1.9378153983288509 3 1 -4
3118 1 19.355319116600292 23.59517604689614 4.750609706905435 3 -1 -2
3726 1 19.750821223496914 24.026018710805513 1.5445905249424574 -2 0 2
1165 1 20.862659783243537 20.177964768589455 4.5501616095066 1 -2 -3
2305 1 24.009530956946293 23.292165185036147 1.1152110270996405 0 -1 1
126 1 21.922571226208973 22.58746861132615 2.987825541076072 1 -2 -2
342 2 24.04046952576998 19.787599866983463 4.8436150345373985 -1 -1 0
1747 1 24.02519856153959 20.253894488729483 1.7845955886474076 2 -1 3
1514 1 25.4269228032287 22.133159478356784 3.8864351714458785 0 4 3
2855 2 27.094034284626886 22.813325757887878 1.2818085616521615 -5 2 0
674 1 27.209621398049034 20.20352791751995 3.002158472930817 2 2 3
2705 1 29.231564503066434 22.516834212513064 3.719565851038784 0 -1 0
1989 2 34.025334638748895 21.300893062120924 2.450995506905271 -3 4 0
1945 2 31.063110424370958 21.769357662046986 0.6970246427589087 1 3 1
2035 1 33.79255528602509 24.17508612883387 0.8239888001478551 2 0 -4
749 1 37.030422017670055 21.91066120275799 2.532454843596058 -1 1 -2
1126 1 38.75312524557279 21.044909457280312 0.38633158460283956 -1 0 -2
1707 1 38.80517178404515 23.60698653397024 1.4064364503274116 -1 0 0
1762 1 36.274255129744795 24.62253686463731 2.57148252796991 -2 -1 2
497 2 39.42245325736752 22.248013449332742 4.425540651846425 1 0 0
940 2 41.73492987420341 21.33832815691778 2.607502785937256 -1 2 3
3355 2 47.795554837348064 22.853301040904597 2.036447291789315 -3 -4 1
1854 2 45.05529998972011 24.142984919882252 1.4575169792455036 0 -1 2
3394 2 44.84704480041265 20.121159369300013 3.479480310208014 0 2 5
700 1 47.92602556744376 21.168789228707496 4.487023072156653 4 2 1
3635 1 48.522320707344896 20.651768359176952 0.025105228716874706 -4 -3 2
3820 1 1.078004074816417 26.40895754574487 3.965906251180039 1 2 2
1561 1 4.281073371891653 26.850462850015948 3.691628312924192 2 -1 1
1512 1 4.06903561458971 24.712547687773554 0.5805149506054847 2 -5 0
3259 1 1.653978805973385 26.408269681854616 0.6862249759775892 1 0 -2
3774 1 4.523468540677165 28.960618011933672 1.1947116021823412 1 -1 -1
2191 1 7.433850417453161 27.59113925441749 4.693508784242272 0 2 0
1670 1 9.665496881021266 27.42220077154815 1.9056118765303907 -1 -2 1
2114 1 6.459525731381385 26.83514887021802 1.8604292631667454 1 -2 1
3200 1 10.827507658463526 25.595983233586992 4.369891401518234 2 -3 2
1005 1 10.960863427115852 28.614104152867046 4.089575545691099 2 -5 0
2772 1 12.127773024265995 26.738092313448327 2.5057638927008 2 2 0
2668 1 13.383659500168113 29.59025283149512 3.488392035777307 -2 -2 5
1304 1 13.434784324416666 29.579270362649215 0.1074203319760789 2 0 1
3763 1 14.668580037990605 24.981163837768037 3.723373377156525 -5 2 -1
2045 1 13.563907403989115 27.29173973177062 4.847364180654386 3 -2 4
1586 1 17.186190007208847 26.279004663477444 4.394443701724533 -5 5 1
3858 2 15.402776418289239 26.895288330805087 2.125627669439681 -1 4 4
2359 2 19.321927078143258 27.396296535266323 2.080369235395823 0 1 1
1633 1 17.084769692576863 26.169189362818532 0.2922682842239742 -3 1 4
656 1 22.954068620529043 29.074515580634994 2.8020289110576924 3 4 0
3885 2 22.28110439014123 25.84974964776189 1.0003436617046604 2 1 -2
3547 1 24.8914937731981 25.98294523739201 2.8815200640596212 2 2 -1
2354 2 27.87707361164722 28.36661022628117 4.613290166232955 -1 1 0
3986 2 27.609471718340696 26.492918181116995 1.727673621521457 -1 -1 -2
3935 2 31.59236718026091 27.945172186052364 4.91166265895587 1 1 -1
612 1 33.89980579862782 27.146229184718976 0.6892951785129298 2 -3 0
1030 1 30.156200448158728 28.366391950003923 1.0503280501548398 -3 -1 -2
3624 1 34.486914740864215 27.36999191995709 3.7989399745447505 -2 2 0
2237 1 32.62285967253567 29.066650200699108 2.2314619677460863 1 -1 2
3853 2 31.363642587634374 24.810191148138827 3.141446621465726 -1 4 2
728 1 36.80449679925619 26.999805385785617 0.8789034950948028 4 -2 1
289 1 38.8037563687329 26.359039784457707 3.8777078022381457 1 3 -2
3716 1 39.1985772754825 27.892723896341263 0.5997094447760608 1 -3 3
502 1 37.33032091487117 28.646344174350016 3.2945302470939692 -1 0 2
3460 2 41.439417860715615 25.12278706672643 3.674865231608148 2 2 6
2610 1 41.14083873945079 26.020665022929766 0.2865573836203229 -5 0 2
2204 1 41.14674749669457 28.323219683664522 2.6573371899406104 -1 4 -3
950 2 44.133556837938826 27.656647356736936 4.764647407949304 -3 0 1
3710 1 46.89544072720774 25.014710726673496 4.5041198379770675 -2 3 5
1400 2 48.82102098606379 25.95233105817287 1.7905652334981028 -3 2 2
1386 2 48.40678079588436 29.047608091062866 1.539179449712849 -1 1 3
959 2 45.687343519660075 28.008311503541798 1.9532758406935427 5 2 4
1061 1 47.69491024423554 28.940587555376194 4.864962281875705 -3 1 0
3990 2 1.842651281509262 29.780393597222332 3.795890038167365 -1 0 0
2741 1 2.2337290838913897 32.455944962532975 2.831330989447832 0 0 2
416 2 0.06571355161220435 34.30264518929079 1.6989805060070506 -4 0 1
142 1 8.182042846421615 29.96520948932885 2.1172513904945243 -1 2 -2
2075 1 5.388241894347123 29.971819010058745 3.9493359349194765 0 1 -1
381 2 5.489889294932154 34.49181708841019 2.9886411702654367 1 1 6
2005 1 8.53285472670908 32.26675435469081 3.9536264543144637 -2 -7 4
570 1 8.099248511006056 32.49821708824419 1.0424606425969507 -1 0 0
1946 2 5.201774533005232 31.91702222696348 0.4128732785264534 -2 -1 -3
3748 1 11.328745707899424 30.973378058658067 1.7701939466240193 0 2 0
1997 2 11.068947338772038 34.25222320431696 3.9065326370516757 -2 3 -3
3880 2 13.923937843323655 33.02681433811605 2.182313445534248 0 -2 2
1816 1 16.571235649539947 29.95911266653362 2.242416558384794 -2 1 1
1833 2 17.88690886724614 33.206732965073165 3.955843922254875 -1 -1 6
2401 2 19.52193950714026 30.40859326795848 1.0410817263387218 -1 2 -3
1957 2 19.117777228197102 29.890392196016883 4.751991068781705 1 4 -2
1679 1 21.528043608694162 32.27603916053668 4.104609187303067 2 0 -4
1353 2 23.461028833906802 32.3677417135388 1.5471753647606952 3 0 0
1866 2 20.36072020298135 33.40541788111658 0.48370545811365634 -1 3 1
1450 2 26.643103501698736 29.82866113438184 2.0017111231724916 0 1 -1
983 2 27.12690515029625 32.65336640797055 4.070217960800697 -3 -1 1
1374 2 26.31122883861046 34.233010076564284 0.9492832821340984 2 0 1
815 1 28.308433779434242 31.6154478558164 0.34092957729025364 2 0 -1
3256 1 29.9500407613281 30.697071410711214 2.691760221241127 -3 2 -2
3189 1 30.940038660916443 34.243861926364026 1.5331434951467415 1 0 -4
3753 1 32.612925490719704 32.07361076981435 3.7412044836749803 -2 -2 -1
673 1 34.235650362099406 33.445697248636456 1.9743062703115533 0 -3 -1
3578 1 31.231781157122658 31.480744184013357 0.5442885779048561 -3 1 1
1417 2 35.43348768330852 30.258483204165028 1.6375452873794383 -2 -2 -5
2599 1 39.16788391598005 30.67174902344225 2.5566889281465857 -1 -4 3
2682 1 36.85990643232105 32.301631592234145 2.839693030845502 -1 0 -2
3801 1 40.989628276962414 30.36898381023397 0.532550198413634 2 -2 0
3488 2 43.41546264846195 30.662138659493028 2.7238383129002415 3 -1 -1
1837 2 42.263674891397166 33.4792787810087 2.335340781033679 2 -1 0
3668 1 41.402918812624065 30.489174390657183 4.6100275836033715 -4 -2 -3
1433 2 45.602676174973084 33.32399379532829 3.624512842329758 0 0 4
3159 1 48.42020401616433 31.63872326669843 2.960431260107976 -4 1 4
3909 2 45.71907409111438 31.57040737035424 0.3196102274146402 0 -3 4
3469 2 3.4097509062222056 38.46604230425608 2.1962884369726194 -3 0 0
3515 1 8.127982809483147 35.47304205899373 1.8748190057120007 2 -4 -1
3868 2 5.9909951284531155 36.83364510783168 0.9329393511502092 -1 1 1
379 2 6.127549985063705 37.598611901168226 4.5853988072929575 1 -3 2
2126 1 10.140349670836718 37.23663465171382 3.284201061479992 0 1 -1
3666 1 13.167148663068845 37.074433896813375 2.439165780602752 -1 -1 0
417 2 11.381943147808506 38.88016627157897 0.7994929370600387 -2 2 2
1494 2 11.629215683613701 34.921744614926965 0.42213997679029347 -1 -1 0
1495 2 15.44529811892344 38.62339543609427 0.40172782723103234 -1 -5 3
2473 2 15.958377445594719 35.560140670530224 3.994023045150948 1 -2 2
2444 2 17.95475807812803 35.75429857571336 1.0958500928136103 0 1 0
565 1 19.7099810819539 39.01578211875162 2.8626200536668422 2 1 -1
1143 1 23.75074740713606 35.233884117066346 2.8325074015943006 0 -1 -2
1773 1 22.738093193797685 36.72444690143199 1.0341322817655476 0 -2 -1
1752 1 20.816773091762855 35.21993299945184 3.411199720759931 -1 0 2
3061 1 23.515859629070633 39.50731092512972 2.362312752593945 -2 2 5
1628 1 24.242294989774255 37.80344343467811 4.939555168928663 0 2 5
1490 2 19.99188220065805 38.36627305739487 0.030033663194177745 -3 -3 1
64 1 25.920267632840513 37.732474611023704 1.3353168500676693 3 0 3
3386 2 27.656868337193202 39.04291297605198 2.8502877220564757 3 0 -1
1051 1 28.687615969326842 36.06918519684029 2.7228815314709554 2 -2 -1
1021 1 30.712137954692547 38.32374156838175 1.9034919127288643 0 -2 0
2649 1 33.09221841712883 35.6290874436489 4.19258883906136 0 1 1
413 2 33.56147189408777 38.36177040207468 3.2018731642944807 0 -2 4
3577 1 35.95718986214896 35.35190465886197 3.4443069493592753 0 -4 3
3220 1 37.5914695440989 34.599611910039535 0.5317485185228015 1 -1 2
3056 1 36.697215671141805 38.03780456452375 3.8727637050008545 2 -1 2
1967 2 39.21089892497313 38.09602979295253 1.2428102064025006 0 1 3
3170 1 38.99837843025571 35.694012103978494 3.2868457970430773 -2 2 0
3926 2 35.56487332451388 37.27719244641611 0.19283477671128335 0 -1 2
846 2 42.37871213855899 37.49131316201451 3.632406736114303 0 -2 -1
2282 1 43.17141407372857 37.1026266349898 0.030935339266079977 -1 1 1
2986 2 46.38705319443667 35.6456634157389 1.0469054662635315 -1 3 -1
2413 2 48.73080474994287 37.566430791254625 4.4882922667842315 -3 0 -2
211 1 45.21550870437682 39.53117731198582 1.534666149661537 2 4 5
3947 2 1.7706056204986202 41.519139777555395 2.2989010493075357 1 -1 -1
409 2 4.050130703979981 44.083725468278296 1.0449998681439576 -1 0 -4
879 2 5.096067298483426 42.01950567731536 3.3662715746948537 1 -2 -1
2909 2 7.988927719685979 39.6870325755588 2.1839823459882006 -2 -1 -3
2464 2 13.300513768829571 40.30697356677955 3.5025304391578342 -2 -1 -2
350 2 13.413981045708159 41.73068532466066 0.22755966671254238 2 1 -3
643 1 10.298272941656455 42.2535343693869 1.02890426414741 0 1 1
1968 2 10.599337952466485 44.0438958383091 4.194562819733237 0 0 -2
1532 1 15.910299553167699 42.46556069769627 2.457253465980232 -1 -4 -4
774 1 16.370259302506643 39.84291612365668 3.9565130184327497 2 0 -3
3288 1 14.947170919584748 42.844324866887575 4.92184258392802 -1 -2 0
2310 1 18.253359736250605 41.48718350135596 1.7498933013117723 -3 0 4
2870 2 19.696238936519315 44.2395789544952 3.329473388187127 -3 -1 -1
3476 2 23.86178498988317 43.008239415618895 1.036262753638336 1 -3 1
2339 2 21.935215299153562 41.69737742301222 3.6357037028387804 -7 1 0
2034 1 26.681373915303908 41.78838655863018 1.348620778013883 -2 -4 2
2995 2 29.605033102962143 44.29143972114486 2.5502018396412347 3 -4 -4
3250 1 28.602088790606423 41.85541649190515 4.338567044016033 0 3 0
2597 1 25.306162783589873 42.407781030019 4.469398805863324 -1 2 5
131 1 30.885396397037244 39.778080555032446 4.0152420311190555 -2 0 2
1103 1 30.21314388951121 40.81995203418716 1.7768721745084204 -1 1 2
996 2 32.748680039007226 39.599382516338615 0.1591139685977572 -2 2 1
1929 2 34.035537406307014 41.17633955541095 2.8252636783251286 -2 -1 0
1235 1 31.603027650171317 42.28098309598971 4.432893006421359 2 -1 -2
2015 1 32.01268477176117 42.908983217636724 0.708980684039479 -1 1 -1
3030 1 36.53544809040987 41.267525505668125 1.507555362594606 -2 -3 -2
3975 2 37.055513413941476 43.16676817255273 4.1263272662972605 1 -2 0
293 1 38.962928015738385 40.87560448515454 2.915807030126003 -2 6 0
2618 1 37.928967585204184 44.24719352351148 1.1077603073037412 -3 2 2
2916 2 35.006022966213806 44.43075934186708 1.1409100747258136 -2 -4 0
1138 1 40.59524840817756 43.078252616313726 1.8967339451918115 2 2 -2
534 1 43.47376504291561 41.98188145853132 1.7043105401007528 -4 1 -2
3646 1 44.456305700186306 42.742633523168266 4.829962977190791 2 -2 -1
198 1 41.18373649743232 43.86062713324708 4.560209549105825 -6 0 -2
1616 1 41.82412821619088 41.12291248637757 3.7368111130008552 1 -4 2
274 1 41.99968098545367 39.68155816026116 1.2167523103971356 -1 -5 3
2297 1 48.411996245820745 40.09394202574759 1.8646114714313708 0 3 1
3500 2 49.0368087277567 42.19779056785785 4.775587464751778 2 1 -1
145 1 46.69746192922352 41.887687765807804 2.8975561039176294 0 0 1
337 2 48.791789832944325 44.019793624935865 1.8626743141446447 -3 -2 -2
1808 1 45.599300646731734 43.67982390253161 0.8920020188186251 2 -4 1
833 2 3.104911530206295 44.56701041795192 4.359154090271527 0 0 3
1434 2 1.940938510765474 47.12154967688256 2.8017074913187447 1 0 -2
973 2 1.2563033424318943 45.54091075263223 0.17486906483894973 1 -2 1
498 2 8.749404094454736 47.925427822983714 4.532486297711364 1 0 2
432 2 6.768359718549462 45.072130307331086 2.631671260870929 1 -3 0
1902 2 5.564057530490455 48.11019001164486 1.6680095989235182 1 3 3
2711 1 9.012012759393766 49.20806084597531 0.9446354926202853 2 -1 -4
1648 1 9.625062931800047 45.427494418144356 1.7360098833482667 -2 -4 3
3435 2 13.412464925447809 44.61379305613837 1.7044860913772981 -1 -1 1
1412 2 11.814764324529646 47.34501460832346 2.205730797432012 2 1 1
1896 2 14.563108328022478 49.35905092336748 2.1776998160327086 -2 1 0
2472 2 17.4529700415229 44.804229125840415 0.10604426389655994 -1 0 -2
1365 2 16.95103576975388 45.04035106967251 3.8041244282829076 -2 -1 0
2842 2 17.695170080113407 47.70449198061427 0.8492027022739647 3 -2 -2
678 1 23.212943831465697 45.00298444394093 4.253581310603953 0 2 0
1960 2 19.86155399513598 47.79769195993698 3.7575589255834743 0 4 -2
3919 2 23.637098078509723 48.97627155995581 3.397009830516846 2 -2 -1
159 1 21.841937351232026 47.013794904327625 1.4091103010972035 1 0 5
1948 2 27.03523440768112 45.85543420555482 2.753515431993746 -1 3 1
2262 1 24.803150915235964 48.05998471942609 0.46946584919443113 -4 -2 2
3917 2 27.659310395154158 49.13213270335589 2.0061446416900997 1 0 -1
2121 1 32.10081971789262 48.89320682258162 2.1673752806418323 -2 -4 2
1876 2 30.702922871388232 47.953472422557475 4.825728395389369 1 -4 0
3940 2 32.95803555264648 45.93636421202766 3.410547259116854 0 0 0
3064 1 33.82101576526882 48.44485653041763 4.4143639078801025 -2 -4 0
1091 1 37.65078172395229 46.96601767905727 1.6524606345631727 -5 -3 7
16 1 34.99191647365164 47.784621487864214 0.43863113521589453 -2 -5 -1
3987 2 40.14685363225189 46.625396802283426 2.758003861070756 1 -2 2
2370 2 40.6527515358673 49.02497393757258 0.44583791130170525 1 1 1
3232 1 43.2595362378451 44.62947805396622 2.9604339410659737 -3 -1 2
283 1 42.159157614794665 45.41671095126871 0.4934845650854367 1 -1 -1
1983 2 42.99776391690488 48.199458242439114 3.7561340247976593 2 0 1
3358 2 49.41954843075616 46.079408680591385 4.872689829073083 0 -3 2
603 1 44.871556260915746 47.49348451950447 1.039524323024278 2 2 -2
3079 1 47.93993004840642 47.36422678366641 1.3902505626279946 0 0 2
14 1 46.166361801994505 44.746416113220135 3.576397891615281 -1 -3 1
3931 2 2.185863516437952 2.6279085148415633 7.03321174739215 -4 3 0
1751 1 4.35948603342219 1.3496002794941075 7.995285774883229 0 2 2
1783 1 2.8381369600580273 3.380316518690951 9.701404082903169 -1 4 -3
579 1 5.49260225378023 3.5555167162385035 5.558474936339089 -1 -3 2
1212 1 7.076426172880768 1.268084604531632 6.179430714002499 2 -1 4
1177 1 5.635569508827929 4.120408322775854 8.092778522634191 2 1 1
2016 1 8.219091231736668 3.3253672144892876 8.637358701432502 -2 3 2
1229 1 9.468710152225388 2.3583062873797433 5.542639143375496 1 2 -2
3172 1 9.813401385307442 0.21576551364030908 8.152191103855966 -3 -2 0
1070 1 11.185540996069975 3.459220876338497 7.7237570469344545 -3 1 -2
2815 1 13.895238409778363 2.7852234712563204 8.147689760008547 -2 -1 0
521 1 15.69308697158636 1.7296846061311109 5.047225133010223 2 -2 -2
3776 1 18.310741509355978 4.463392516311268 8.546111591267682 0 0 0
3648 1 16.73976278201788 1.5369442967357394 7.925799592852804 0 -5 1
3212 1 15.828801523694041 4.506829203556018 6.0226405197326525 1 1 -2
600 1 20.426442579179344 2.542873279801441 9.04624203130965 -1 0 -2
443 2 21.75579257109138 3.8811271386433535 6.336283524963427 1 2 0
467 2 19.938200457244307 0.8215529699667542 6.491055654448847 2 2 -3
2511 1 22.922350904489463 2.665793610146563 9.215282796775536 2 0 2
2619 1 25.646322133887352 3.3074469772171735 7.329774701025557 -1 0 0
3943 2 28.947344315802706 0.9123040290902958 6.5609557972337225 1 -3 -2
1189 1 29.069832318311278 4.768749770421287 7.169278784370539 -2 1 -2
3052 1 31.81233876362093 3.014938711552302 7.00798970897907 -1 2 2
2079 1 32.84526015758407 4.796654264440434 9.029108731036192 -2 -1 2
2875 2 39.11993358548392 4.53517193280463 6.444439085564701 -2 -1 0