LAMMPS data file via write_data, version 2 Aug 2023, timestep = 8000000, units = metal

1001 atoms
3 atom types

0 35.22820204664032 xlo xhi
0 35.22820204664032 ylo yhi
0 35.22820204664032 zlo zhi

Masses

1 22.98976928
2 14.0067
3 1.00784

Atoms # atomic

981 1 0.4943659556853485 4.075478453554847 0.8228560154183872 3 -5 -1
574 1 2.39995090983331 4.305948571626543 3.432511844360942 -4 1 -1
737 1 4.518003184381154 4.852036952552773 0.4127902394160076 -6 1 -1
282 1 2.3155693935581056 1.2837262433536558 0.004012902126859785 3 3 1
331 1 7.715183576966025 4.292633832619578 0.8037415015137965 3 -2 3
143 1 6.579043447859676 2.4409654706244153 4.003131065775637 1 5 -2
424 1 5.140903911393581 0.0019122361593630899 2.304465361132312 3 2 -4
734 1 11.838076969412356 3.3764007179164706 0.3479051802446322 0 -1 -2
685 1 14.10576782053139 2.2169809809354675 2.7693800096623304 0 4 3
390 1 10.104545546342122 1.9282388023754602 3.4245266196799364 3 -1 2
73 1 12.295443258830517 4.718183522505454 4.35207352420863 3 -2 1
391 1 19.294170712820677 4.757446194653866 2.0407272471218856 -3 1 2
184 1 17.089652495214278 0.8035107041229732 3.904581934735601 4 1 -1
79 1 16.114128275460637 3.7306962010420097 4.64104514467169 9 0 -1
414 1 19.088562851143923 0.9745529755790231 0.2766179294045567 1 2 1
487 1 24.927959392671287 1.6533704563307563 4.972007412438721 4 3 0
217 1 22.343876361848487 2.2159336348593075 1.8431796861581842 2 2 -1
381 1 26.335150599015716 1.027278014213356 0.5948894243523266 -2 2 0
995 1 29.10505061224974 1.6173676939877022 3.427517339340732 -2 7 0
712 1 28.216787049001447 4.160636214629876 0.37513997712666414 -1 3 -2
820 1 25.368331517486176 3.652005194040239 2.110150944977818 2 -3 -3
533 1 35.21607692032432 2.504497212850835 4.927037654442644 -2 0 1
883 1 32.961586543252814 2.382441231410562 2.2355157195985003 4 1 2
520 1 0.960437546067174 7.494549957162428 0.45504640153035425 3 -2 4
991 1 2.2375188054242967 7.804385939911478 3.328746028163495 1 -2 -3
522 1 9.786841909539257 6.006916469258424 3.6985686889964855 -2 3 -4
791 1 5.929162692374512 7.725683860272466 4.889912468793016 5 1 6
645 1 5.175611428470786 9.22739102617727 1.9591716684961054 -7 -1 4
996 1 8.39011884697515 8.141289208697378 0.29588807920399574 0 2 7
231 1 11.97912228131498 9.125072428029679 1.778148172986518 -1 4 -1
418 1 15.036554780783062 5.347051632252289 1.3337030545216189 2 3 0
138 1 19.23109400978638 8.30099838136134 1.3672010036963436 -1 -1 3
691 1 18.360767819864122 7.776423900414636 4.544566249066598 6 -3 -2
625 1 22.650007177954453 5.566368381224393 3.1951149642048216 -4 -1 0
377 1 22.994033357744872 8.570058851921942 1.934681444806996 1 0 2
947 1 21.62522950997487 9.463251443779427 4.590662263603419 0 -1 1
961 1 22.147867560735964 5.480813813888472 0.22686475630705533 -1 -2 -2
683 1 26.50001123032005 7.401282879339329 3.313226345345006 1 -2 2
811 1 29.80340815913287 5.41632105565209 4.76551119004403 -3 0 -1
207 1 28.65223226182068 7.587204973710805 0.6319008900112423 0 0 3
406 1 28.949446009621735 9.814635927460488 3.7259390428617363 0 -1 3
986 1 32.18289228577374 8.139602535955778 1.9338641241341248 1 -3 -1
154 1 34.27993254610547 5.5393002382114584 3.578972249477514 -1 -1 0
378 1 3.5835073556724724 12.05853928968465 3.951987141595943 -1 2 -1
668 1 0.7055340425431808 10.836986624779339 2.501185884345396 -3 -5 2
497 1 0.6043827919333951 13.774424664567741 2.9954125619972642 1 0 3
103 1 2.8577188798613142 13.22039009598737 0.7209502397808818 6 -3 -6
591 1 9.067477237295336 11.90029900281492 1.2839573325701723 -5 1 -1
443 1 8.37900637366558 10.59440858118864 4.270712073997453 -1 -3 1
524 1 6.587048080462199 13.574265315053106 4.243030920972776 2 0 7
904 1 5.688429660174301 13.385679820012056 0.5324102567425695 -1 3 3
992 1 13.735674440967935 14.304926787132278 0.8311296881108088 0 -1 0
243 1 12.167400683587077 12.981097670222558 4.204852106419761 2 -1 4
131 1 15.1746505538879 11.706702351816306 4.494254112849921 -2 1 5
563 1 16.735919269622958 11.567403135585641 0.9769627268584045 3 -1 1
399 1 18.612412184795783 13.174699984419428 3.710050771559514 -5 0 3
371 1 18.89689312993023 14.44838698697043 0.40306738667477354 -2 2 1
16 1 20.8112835835044 11.927554252774721 1.915302461790149 -2 -2 -4
325 1 23.158703842970326 14.480294863053121 3.645443725908479 3 0 -6
641 1 25.9253636003335 13.535208763131429 2.6540717301325407 0 -5 2
512 1 29.17881176373165 13.543245550971106 3.4431047544066793 7 5 1
1001 3 27.979603099495666 14.53293368737266 2.0527055921751938 9 0 -2
572 1 25.889296562791838 10.92613358501471 0.8113996467676862 -1 4 1
61 1 32.656018217983195 12.737362708078344 1.8552324303971979 1 -3 -1
915 1 3.3433477196684187 16.263765510681846 2.534064782377763 -2 2 0
348 1 1.006356087347822 18.595723575044047 2.0434389745007833 -5 1 1
308 1 10.019064604865626 15.430789613323245 2.108092588430168 -4 3 -2
885 1 6.691992712128301 17.748575270341746 3.2641185278049165 -2 -1 -5
838 1 9.265626978446326 19.28516286198351 0.5900291835153751 -2 3 -1
293 1 13.27528172436406 17.982491596438145 2.4379335944210343 -1 0 0
121 1 19.911402411468988 17.291033240469133 1.5589762196346157 -6 3 2
988 1 15.772700280252497 15.718335014544664 3.895989296560455 -1 2 0
448 1 15.335173349421034 19.74037559004961 4.5979035517655875 0 0 -1
304 1 16.26060609517642 18.97100545534353 1.274363208949164 3 2 3
388 1 16.18480488198657 16.178333641247182 0.22785323806131869 -1 1 -2
489 1 23.867526653257066 17.242192430645368 1.811871270600048 1 1 0
37 1 22.024844713946415 19.33983055151302 4.336405181894014 1 3 1
36 1 27.639508837632466 16.45886234702852 3.9429344559149526 -4 2 -2
888 1 29.806100020149596 15.427439936617612 1.098000749457585 -5 1 -5
365 1 26.487119442863722 18.14607430274467 0.261327131955083 -2 -2 3
592 1 29.806832969072794 19.629564670628834 4.503673767689428 0 0 -2
835 1 32.25229401457614 18.021107220079518 2.894553725619053 -2 3 0
905 1 35.09209217031827 16.999239581642282 4.91083673119324 -1 2 8
152 1 34.89508785523082 15.98508696405172 0.5491192275040192 3 -1 1
874 1 2.0551927469689897 22.01515720704699 1.4690930157133364 0 -2 3
866 1 0.3473669920311504 21.54655649191751 4.839800285017254 0 3 -1
322 1 6.772287699690713 21.830731756096853 0.8190196454674514 5 2 1
802 1 5.29554650408308 24.228729762639496 3.7863040407234494 5 -1 2
663 1 10.03265858741233 22.843341329170425 2.3159361284221824 -4 3 -1
928 1 6.823017747047601 21.028349038435532 4.195202932359885 0 -2 1
901 1 12.646100285203621 21.826273033643268 4.008834796193104 2 1 3
163 1 12.475589478845258 21.06664087628656 0.45704439709327255 -1 5 3
760 1 18.272583350967995 20.475858374085888 3.3343660307825287 1 1 -3
514 1 15.891568831416548 23.79209253009912 4.344682354049755 0 -3 0
792 1 18.355229376674842 24.71143711327261 1.9899692688585073 5 -5 -4
177 1 15.66800892943477 22.098055264584456 1.4528628088390998 2 1 -3
185 1 21.354338726773552 20.939828031525526 0.35943471226096957 5 5 0
87 1 21.35625948608935 24.099092647034507 2.8295015341746157 0 1 -1
294 1 24.59806647128444 21.225969281850244 2.9044240683601945 1 2 0
754 1 27.268730433647704 21.875649098191182 4.932557767464454 -3 1 0
256 1 29.568613602069632 20.68122219544504 0.6435222542889737 -4 0 -2
698 1 25.606230908288293 24.8508005381915 3.238092851163543 5 4 -3
812 1 29.45829418681402 24.369427135331904 1.9079587264851623 -2 -3 2
417 1 33.55729177336809 20.187120461452512 1.3262900878215884 -5 -1 2
59 1 34.73977063759156 24.068934142672166 3.5125938036891506 3 0 1
227 1 31.960630193839435 22.246712725582736 3.2999028048067633 2 -2 1
913 1 32.39802674775119 23.918295889312635 0.17657843660049113 -4 -4 6
849 1 2.6673946495009093 26.294640800328892 2.5739679329764797 -7 -1 1
837 1 3.248865596759959 29.983961365472275 1.1847975880296584 1 -2 7
949 1 4.579177416940137 25.458243906666436 0.03201531365354526 -1 0 -2
192 1 9.881329068112937 26.872027437693582 1.8738027495927603 -3 -3 0
943 1 7.79723296580525 25.32621687261949 0.1523593999336228 2 -5 -3
485 1 6.143646546953387 27.41433818578029 3.245214550501875 -1 3 -1
967 1 13.336482934448435 25.256747597120622 2.1460322874747355 7 -4 3
139 1 12.65623714991902 29.35233281636364 3.2918468430145764 -1 3 -2
939 1 14.629079600617882 29.720781513382008 0.11512659119406976 -3 -1 5
864 1 19.074116324084667 27.563708058892995 4.530465843355459 1 -1 -3
684 1 15.470973954619554 26.97046137150247 3.85864020207201 1 -8 0
582 1 17.858169816809543 29.657079964381353 0.6171924921654041 5 3 5
819 1 23.85715053754549 29.66779318679676 0.5079270160205194 0 1 6
720 1 24.87551173585653 28.84568382838792 4.138846796585246 -4 -2 1
326 1 23.13545634124766 26.607908305343095 1.0159543580763037 5 -1 -3
972 1 29.09617679211718 28.196897585796005 2.3357277145764224 1 -3 5
224 1 26.8349652250104 26.910860489601713 0.3935332759053861 0 0 -1
821 1 34.088606059105445 27.05076736765568 1.8844988246186753 -3 -2 -2
568 1 31.669577337819423 29.800177593188394 2.403085170256511 0 0 -1
650 1 31.39585375040443 25.866501410388782 3.851307718040673 -1 2 5
223 1 1.0026737667030805 31.136775355024323 4.707947083553605 1 1 0
173 1 0.7068367658714085 32.331971334868385 1.5010195172999616 0 1 -3
498 1 2.335851463043227 34.96617986514306 3.920195539205988 3 -3 1
351 1 4.26274211398101 30.931832901870433 4.2517051588600445 -2 1 -3
1000 1 9.161320320571624 34.78627108465678 0.7749613348628224 -1 -5 -1
834 1 8.618014322926498 30.51468533954413 2.9201595046591873 -2 2 3
149 1 8.260203316494858 33.44292061629254 3.5174536314976494 4 -2 3
521 1 6.579975388416505 32.127674647639076 0.2768570397957602 -4 4 0
155 1 11.719035874660367 31.679717976553665 0.8442155327104064 -3 5 -2
379 1 12.236827954038903 34.08784377188781 3.321657562526589 -3 -2 0
851 1 19.11357558635701 32.45496890133096 2.199180200512073 -3 2 6
315 1 15.796845512507943 33.4152556150142 1.83179130409639 1 -2 -1
651 1 21.974894209820956 30.335208437160542 3.2447460077526964 0 0 6
483 1 22.32832690976492 33.13866088295084 0.37099120062170887 -6 -6 -7
270 1 24.990812627803855 33.44467094638118 3.957821030299547 6 -3 4
826 1 28.292148127317294 34.21616368270182 4.37600457624729 2 3 3
611 1 26.034507639079255 31.716735758507095 1.0058450686120797 -6 1 -1
292 1 29.266096811486133 31.662615338864757 2.710256874106254 -2 2 -3
809 1 28.953668122810914 34.37053716794261 0.7671486662172138 3 4 1
890 1 34.98389006007687 35.13877216986225 1.1291130532276419 -3 -3 -2
44 1 31.820345274885764 34.44909104652213 4.332278778386762 0 0 2
748 1 1.705041602438244 0.07207546614769456 8.087655133762562 -1 0 3
71 1 3.4806106415025555 2.3068676490295164 6.024494126629057 -3 1 1
281 1 6.53027958370096 3.233234700969013 8.755785341117546 -4 -3 3
247 1 8.817959891757178 1.862831082435882 6.788805033650507 3 -5 2
560 1 5.252002071991237 0.3586877097321555 9.780087784199315 3 2 5
32 1 14.857133964159408 3.4469074176235246 8.176557597482724 -1 -3 -3
929 1 10.538526804469262 2.133043836106381 9.905753241324891 4 -1 3
927 1 12.825782975451311 1.3227461946181336 6.961231381124544 7 2 9
728 1 18.7324687405975 1.2493798560316325 7.811490048959325 -1 6 1
458 1 17.690820035210262 4.588261026316095 7.3682959260317205 -3 -3 -1
317 1 15.84375040504569 0.10813089390135389 9.636702844300391 6 5 -1
717 1 21.131408887221912 2.5084985775205473 5.427229619111834 -2 -1 0
693 1 23.495279118305188 2.496234084760972 7.775466329676093 1 1 -2
865 1 21.010120283928362 2.9853540017022375 9.804185863523093 2 4 -7
368 1 26.313621604671262 4.346332510012366 6.008963163989015 -8 -2 1
626 1 27.47031321075012 1.2974191510331705 7.336931575132721 2 4 5
145 1 29.99381310527217 3.8809195642844747 8.06223432981008 -6 2 2
843 1 26.00031901457536 3.86884807838696 9.745812358927159 1 -4 4
862 1 31.77820527661344 2.2612963979408507 5.7087960759512235 -7 6 0
289 1 35.03268845675082 4.035233409853664 9.76288820653607 1 5 4
347 1 32.73602498160911 1.1513516654506624 8.548524741154196 2 -3 -3
40 1 4.003271112916691 6.055187628594583 7.200806727709225 3 -4 1
64 1 3.726864268328312 9.596635133835719 6.460894459453167 0 5 3
900 1 0.0992738075982415 9.014536903673976 5.290604173542772 4 1 1
545 1 0.5231178404286936 8.532311667540348 8.963906948723938 1 -4 2
286 1 7.074545775700015 5.18024907126966 6.26323417953657 4 -6 -5
47 1 9.881189195661799 6.298035359297631 7.463432559178993 -2 1 -2
46 1 7.517891669591529 9.215709848554255 7.951332628940962 3 -3 3
855 1 14.569268201202519 7.104321846934146 5.131147014394159 -2 1 2
180 1 11.113463899404472 8.980414321688174 5.580570033172529 2 5 -3
181 1 13.139561979537076 6.407366221287657 8.65416530957298 2 1 0
501 1 10.4364250656193 8.881968536810591 10.015055184583844 -1 -1 -3
570 1 17.479346024810273 9.973903792190432 8.121128941256389 5 -3 1
484 1 24.130890720778076 7.035068454419137 5.933154990516733 3 2 1
329 1 20.62598098412473 6.259651373670895 6.038368376893011 2 2 3
415 1 20.967868914390007 9.142996981956635 8.188906655964438 2 3 -3
126 1 23.209187683642092 5.525422181734577 9.494007282012037 -3 1 0
245 1 25.022188484478846 8.870070184278152 8.922110440151645 -3 0 0
966 1 28.222872652986997 7.8365290503999026 6.603708714755202 -3 0 -2
739 1 27.809217175254528 6.641656291937992 9.3875016996614 -2 -3 -1
313 1 34.87770325543266 5.945648343882979 7.144448034949354 0 1 -6
213 1 32.179288278660295 7.190410294600667 7.33830912969902 -1 2 -1
221 1 2.333029342243914 14.356875758485339 6.077483809010703 3 4 0
969 1 2.7661472380084726 11.792914690097373 9.390324932529728 3 0 2
902 1 7.468427584842121 11.93133409836728 8.89993688015692 0 -1 -3
777 1 13.12026912966047 10.748592542688556 7.35239097029796 -1 4 3
190 1 10.111123921331602 12.550446307426432 7.411831237682864 6 0 -2
248 1 18.06986894949454 10.373589683028118 5.273850176061376 -1 -1 -1
776 1 17.224565041543958 14.519135623780718 7.040851702130418 2 -4 -5
272 1 19.372694474130906 13.506771226708024 9.758010910577172 0 -2 1
587 1 15.889038864604256 12.782644522951216 9.040851764484302 2 0 1
164 1 24.90667276015481 10.294863043066696 5.072983889027446 -4 -1 1
86 1 21.329937071826844 13.683837535367475 5.502258083286909 0 1 2
659 1 23.543573787462176 12.230231615556145 7.603299060223556 1 5 4
741 1 27.6040150019744 11.438067980691724 6.410852412421096 5 6 1
110 1 28.362363389884226 10.092373287860667 9.255972583708374 -3 1 0
49 1 26.078535367043855 14.169843590104106 7.045071843622203 -1 -2 -2
99 1 34.18688624664066 12.53928815591123 6.332313262604998 1 3 -2
750 1 30.744131395459267 12.335525277293673 6.533469444987672 1 1 1
225 1 33.64592676999152 11.47560169264345 9.773857303986635 -3 4 -3
959 1 3.7352876292416193 18.585596694842412 5.687999502593201 6 0 1
462 1 0.8767903521232364 18.280502794354366 7.982880321698356 0 3 4
273 1 4.278779768688958 16.592174827609313 8.507280078248913 5 1 3
807 1 8.430776336531473 16.01344960670721 6.531161589893952 0 -2 0
774 1 7.192895745028337 19.268759733682256 7.351857076996247 1 3 0
350 1 12.9135713523526 16.189321621353383 5.659144753609808 -1 -4 2
196 1 10.971418832406506 18.4819482328404 5.242736458034827 -2 -2 -1
623 1 12.812067136038985 20.03619340482036 7.731791880331297 1 -3 -2
679 1 11.345366309500337 17.18872596885128 8.726031216795759 0 -1 -1
756 1 14.809049281181407 19.241964178735955 10.027847654461048 0 -1 3
962 1 16.055880149309395 17.546016159592366 6.664785490262294 1 -3 -3
188 1 19.49613260719333 16.449842730598753 5.251589245214455 4 4 1
567 1 19.503487790380508 17.65344105188772 9.729751644936226 3 -3 3
50 1 18.7807991217691 19.95957165669486 7.197896260502923 2 2 1
608 1 21.9301475682073 15.270566689485207 9.043738359114503 -1 3 0
492 1 23.909827594914695 16.226319642950404 6.078177532281546 3 2 -3
789 1 22.065329360514877 18.715155723506285 7.977162182353286 -1 0 -1
738 1 26.12812809852109 19.08394020498026 6.715215354897117 1 -4 7
157 1 29.248901898935223 16.208719081013637 7.675176607928662 -2 2 4
468 1 26.937066850475933 19.190271258841715 9.952728855506303 -1 -3 -4
401 1 32.601400169333196 15.921905186611557 7.323865128037625 0 2 2
9 1 33.123251238297414 19.53930022704738 7.9991125142096315 0 0 0
898 1 3.6154348661418108 21.618242063674593 5.833053671934995 -1 -4 2
639 1 4.241477695354526 20.59669339446632 9.098692641889473 -2 -2 -3
903 1 0.8167035587970487 22.167582577280516 8.59406341242656 3 6 -3
255 1 2.1673385819393807 24.50839390387257 6.370178284597836 3 -5 6
284 1 5.323048724020614 23.796617444589607 8.888575716994774 6 6 5
994 1 8.364847883722272 24.40785102544021 5.760414129020844 1 0 5
954 1 9.021771871498919 25.114057496222138 9.234309529397144 1 -1 2
392 1 12.196645580917217 24.88685630914363 5.060807708871833 -2 -1 -2
387 1 10.199759878613104 21.986750327573805 7.345382615153651 -4 4 1
759 1 13.565992365391832 22.894869371101368 9.81489820112741 2 -1 -4
638 1 20.033077330685945 23.483839911535608 5.347557771651275 -1 2 -3
128 1 15.385259145973238 21.71426156296878 7.2593669633747355 -1 2 3
695 1 23.477995296224353 21.85881586816585 5.743916979600208 5 0 0
254 1 20.74581524246522 23.49107093671893 8.483971743869484 -3 5 -3
312 1 24.205642166788756 21.542994925394886 9.562432594869644 -5 -2 2
112 1 27.978351992344244 22.274912806842952 8.430837163046872 2 2 0
151 1 25.52996997837409 24.139042546255524 7.456875504886058 -1 3 4
200 1 34.29042304020787 24.760219915217636 6.842422140571747 -3 2 1
813 1 30.580275876486844 23.236094449612928 6.467272792400393 3 -4 -1
869 1 3.2644598831973957 28.223315046178993 5.869188594223172 -4 4 1
944 1 4.786939896951837 28.453040694795998 9.463399940125859 -2 0 -1
456 1 0.6172610974095307 28.19310181053219 8.115014765705832 0 -2 -2
305 1 9.341094185351684 27.694763386694458 5.645789667329692 4 -2 2
757 1 6.320657722550055 27.017920337727443 7.4424891784016785 2 2 -1
749 1 8.060198566870781 28.884798482635553 10.042321891893293 0 3 -1
319 1 12.597296852911654 26.812277508457253 8.812249403330686 4 6 -1
412 1 14.647002677332482 29.319020781077025 6.768725471556638 -1 -3 6
585 1 15.60668673719301 25.416176586154904 7.603601915738972 3 -6 2
844 1 19.58465916001091 26.14137171405293 7.342180097235733 2 6 -2
889 1 17.45888547212093 28.29246688877952 8.156178248423643 -1 -1 -2
297 1 22.172352544739883 26.167389531352292 5.127761917027322 0 2 0
782 1 23.214130738093868 26.717482257220624 8.614216689980466 -1 0 1
107 1 25.84532919355426 28.6985646110228 7.7712294793817085 2 0 -2
204 1 27.984612765049356 26.325808875455472 6.36674648691658 3 4 3
419 1 28.127903968455076 26.612831491391695 9.447943262580614 0 -5 0
170 1 34.2853634271404 28.04214699556739 5.101135439972775 2 3 1
373 1 33.10260729136474 26.161750396180743 9.493402545012005 -3 5 -4
740 1 30.759393793175928 27.42279706226534 6.120475718388939 2 -5 1
557 1 2.838601599884365 31.396805089882502 8.243799011599044 -1 -5 -1
330 1 5.910147241278878 33.609577067251294 6.621875746412267 2 -2 2
375 1 7.384769750371987 30.830204408201496 7.2150378413864225 -2 -1 -2
882 1 8.474321498825748 34.993598633531214 9.934319615501682 -5 -4 1
658 1 10.0285637554764 32.35039750103387 5.756142304126789 3 -6 1
805 1 11.54846296886357 31.350144921143656 8.369338465710788 0 -1 1
208 1 12.28511925592618 34.0372597492949 9.703656374909643 6 -1 -1
8 1 14.869705205717993 31.648092159989933 8.430600210247395 -1 4 0
546 1 17.560586221003874 30.770568171059548 5.799841971115216 5 -6 4
117 1 15.285371589484889 34.4628115424507 6.399134985703242 -2 -5 5
678 1 19.535869938455782 33.776096170819315 5.173654195374565 1 -1 -4
269 1 19.394609509006518 32.62030503074938 9.578961984281568 3 -3 4
730 1 22.07349397616958 31.601103102776303 6.8024509289266035 -1 0 1
601 1 22.368524039780002 34.57793505550686 6.862152631151889 -2 0 3
120 1 27.861380752553515 30.71117174950412 5.292672938829035 3 -2 -1
63 1 29.411166775959273 34.54228080876601 8.110171654022384 -2 -4 0
594 1 29.19269424522294 30.825399478161025 9.114512093527038 0 -2 -1
528 1 26.228611482213783 33.71426709010951 6.95519535525596 -1 -5 0
894 1 27.06042826977668 33.28941977875094 10.043858510206979 6 -1 1
910 1 34.71909404250893 34.16654582544982 6.147487260113938 -3 -1 -6
549 1 30.980602105237924 31.30927044455305 5.876687390729724 -4 -4 7
553 1 33.49685807544201 31.346086174067803 8.583132311625546 8 0 2
303 1 4.33186663293381 1.7727630737425397 13.489273082227545 2 -1 2
101 1 3.826937766267409 3.7716303257471133 10.427929606745796 3 1 4
726 1 1.7338078208040713 3.865584827380873 13.698729532331996 -2 2 -2
845 1 0.5776586955931441 1.0050541180039811 12.33970561713544 0 0 0
271 1 7.219635777272776 2.7140120457280252 12.218546465752718 0 -2 2
688 1 5.79480344218813 4.834813037698798 13.165231324983397 0 -4 0
666 1 13.727957827318551 0.7647261563763366 12.614671056061322 6 -1 1
696 1 12.211116583855105 4.00049386717732 14.529151110747323 -1 -1 0
537 1 13.627175508307234 4.028701239086168 11.88199695471389 0 0 -1
500 1 10.074699287840344 1.2926071582274765 12.810186722390192 -1 1 -3
222 1 17.99911628298476 2.9279061962000585 10.824729532111673 4 -4 0
539 1 17.14866927138408 4.582828335313915 13.807960708372136 0 -2 3
751 1 20.04020624312838 1.195826590363926 13.517765820801715 -6 -1 1
621 1 22.792580567183784 3.7774171353071537 12.629306436695106 1 -3 2
241 1 24.991180288507852 0.3016940936553345 14.05499659331449 -4 3 -5
115 1 25.40239802443558 1.0975024281962122 10.701204153883852 -5 -1 8
336 1 26.66685749125282 3.2946344775195655 14.389937134092289 3 4 4
518 1 29.223701637875116 1.378917274327667 11.104222393474812 -1 0 3
908 1 29.82538484485461 4.503969412644166 13.631581248396898 3 0 0
714 1 32.323885685770385 3.517906642374238 11.692036305012033 0 3 -4
167 1 32.16244664173709 0.010883783651951752 13.149510945118472 2 5 -1
990 1 1.954135173818149 7.637085241576218 12.816212009967408 -3 0 6
642 1 4.734313856186673 8.606170549878795 10.923217373509482 -2 1 0
800 1 7.487998944583076 6.223160132067498 10.32426732916028 -3 4 2
982 1 7.663835682136854 9.804048017965389 11.336174974136886 3 0 5
627 1 5.721687817428482 9.758854302480485 14.388104332198855 -2 5 -2
268 1 10.368022786130812 5.219114111152491 12.11510547858177 3 -2 0
875 1 10.898639905676193 7.668780058317967 14.09677071586069 -2 0 4
413 1 13.753449649680388 8.317520103299127 11.996333777369566 1 -3 3
871 1 15.889096770306224 6.093206836602654 10.719517456194103 -6 -4 -1
12 1 19.007353958664986 6.2945385862293834 10.524658957360906 -3 -7 0
783 1 18.262520335993134 8.95978382979425 14.118418566612066 0 4 -1
822 1 18.144594247956014 9.493078179750349 11.057858502249356 -3 -5 -6
701 1 21.076084021549438 8.302632290320481 12.635352513276507 -6 1 2
202 1 23.937031102396475 9.039118631458178 14.395357605683376 -2 0 -2
334 1 25.577740846123152 7.279879254797972 12.45822991637232 0 1 3
84 1 28.749546718407444 7.931604705209514 13.539407441377701 0 2 3
239 1 31.215212989315898 6.690188729096602 11.068902726476528 0 0 -3
477 1 34.39155880803434 6.381336918553378 12.568070081387283 0 1 2
536 1 33.89536808339113 9.183833374874032 14.347414981843912 -1 2 -2
873 1 2.7733120002181972 11.132420755248415 12.580845868340372 2 0 5
832 1 4.634233204716355 14.81420498089635 10.967511879872692 5 0 3
694 1 9.481776980317141 14.197134512745052 11.049905645091346 -3 -2 -3
860 1 6.073351520071721 12.237462941356943 12.509323670243667 0 -1 4
89 1 7.502338108608765 15.026197402163389 14.47731053238895 -3 2 2
237 1 9.722566702335268 12.019174124201976 13.38273238807804 -4 -7 2
309 1 13.27160434060594 12.334995457064224 11.007121670311076 -5 -1 -3
386 1 14.33794209065181 11.492304321988538 14.440177650006872 2 -1 1
98 1 17.27460795832617 12.153745291796191 12.984677616692958 -2 -2 -3
327 1 16.062100005870995 14.658548567680302 12.021027837131069 0 -2 6
136 1 22.3283785541743 12.615848914790801 12.30603383685547 1 3 2
362 1 28.690372786483643 14.044049302159769 11.478818798799145 -4 5 -1
971 1 25.384647439409814 11.477075721288799 11.320305126325415 -3 -2 1
490 1 27.401557484380564 10.967049730686375 13.820950176171863 -1 1 0
56 1 25.236400211293194 14.40377681415203 10.413273422245943 3 1 -1
899 1 31.090060838687492 10.430669812423195 11.97335762819676 -4 0 2
919 1 30.502001367275533 13.528695665293704 13.916726380018956 0 6 7
581 1 34.7666041026695 12.603610419544196 13.382757718729032 0 -5 -5
956 1 33.18301586906239 14.645031525614119 10.795340711176054 4 -2 7
867 1 2.50801080028865 15.341863223107737 14.008806870610918 -3 2 2
561 1 4.01315569136849 18.27839289186375 11.394669241596814 2 0 5
354 1 1.7186214047566382 15.668358647638088 10.778471494313814 -2 -1 0
33 1 7.538459158553492 18.153154959046073 10.848338244417448 -4 -2 -1
4 1 6.463492474242167 17.88705787748962 13.537980779931708 0 4 2
13 1 13.105072322530136 15.900202024693208 12.399272179611284 3 6 -3
976 1 11.084103154221323 19.843208890188002 10.406781221159019 -1 -1 -5
709 1 10.787065695545154 17.50514460310888 14.641391363925626 4 -2 0
926 1 13.558572439598949 20.062103833092948 12.831558140388136 3 6 -2
938 1 15.048152652642555 17.364100734739665 14.831927217170742 0 -5 -2
980 1 18.237327350767185 18.38662594383864 13.331125687606638 6 0 -2
920 1 20.82329067755961 16.067603161657374 12.484904355640209 2 -3 1
868 1 24.221452384648227 15.417514534628996 14.150511264328644 -1 -2 2
847 1 23.70203871694238 17.62572209213173 11.328930589931607 7 2 4
488 1 24.710505882654342 18.88413105627071 14.103611810185916 3 -1 -5
999 1 27.62815588309992 16.566198485470437 13.045793046128653 0 1 2
82 1 30.243497079784653 18.253376452644474 10.522639866000544 -1 -1 3
635 1 34.620124531553785 16.448593156307837 13.621152128401688 -6 -1 -2
619 1 34.733551496765706 19.75989842517461 11.280107662236345 7 -1 -2
114 1 32.09926433895643 19.095348959589888 13.509448773794292 -4 -3 -2
342 1 3.4493326994337914 22.29398290547167 12.351308318402893 0 2 -1
182 1 1.2263153988082127 20.52049754144682 14.814937380647407 1 -1 1
636 1 7.515856228977607 21.546651951031848 10.949546684642707 2 1 3
337 1 10.052725080082912 20.67888308319397 13.59748628289854 0 -1 0
67 1 7.17786560546813 21.651921470067347 14.756724030644541 -7 2 -3
937 1 10.70383788843132 23.648585008057772 12.012340116047822 -1 2 0
828 1 14.307501836106185 23.081610697503123 13.689973308962907 1 0 2
816 1 17.477093898537483 21.40426551475403 10.529559790822367 -2 0 2
781 1 16.323942262895503 20.527693237074313 14.610706810994888 -4 3 5
573 1 18.766728321370426 23.201469279053935 13.682207477862574 -1 0 -1
872 1 21.190665534271552 20.88664136980169 10.396032355573794 1 -6 5
459 1 21.92136616667267 24.36248341088914 11.693380764239178 0 2 1
453 1 21.80784778001161 20.170952898186734 13.331986048647506 3 0 1
735 1 29.188992204345475 21.17206301352982 12.790598337645052 5 -2 -2
923 1 25.9644435756262 21.74163008588056 14.005588641484279 7 -1 -1
135 1 26.835552182066234 23.921513352282798 11.593837021714572 -1 -2 -2
998 1 28.2182974460063 24.491357301213807 14.163997174602315 0 1 1
914 1 31.475643045049342 21.692545266477598 10.18957130700555 5 -3 3
989 1 33.15568018114128 22.878916300244175 12.71606442155063 3 0 1
548 1 1.3450444803194723 25.96302324095724 11.134397841162173 -2 -2 -2
109 1 3.8443194242308216 26.711174710891775 12.970720815372848 -2 5 3
846 1 0.4899009962502255 25.849521610244455 14.502896679114674 3 2 -1
942 1 1.8761859203375202 29.34962638936252 14.447026871993065 3 4 -4
590 1 7.26414055377501 26.062964716583657 12.260051793211128 4 4 -2
974 1 5.582288782912898 29.627601720135463 13.067057859194257 -4 -3 -2
132 1 11.017924363967381 26.44202205511796 14.174098526440474 0 0 1
160 1 10.931844172143448 28.396954290170065 11.485378874560409 3 3 0
983 1 13.664817970487045 25.79697404460875 11.646663152763406 4 2 1
496 1 14.079775502567468 29.026825663087337 10.738807587724487 -1 -3 2
435 1 12.21005725968897 29.741516865801223 13.817101716175658 4 -8 -2
402 1 18.44119368546386 25.9445081711987 10.615333720205937 2 1 0
134 1 16.22801973278586 27.694406417855856 12.799275625234008 5 4 0
361 1 19.10708889744936 26.952809263602063 14.082379207312176 0 0 -5
5 1 20.37722399339384 29.091896200840512 10.312011183377793 -6 1 2
609 1 21.08715426173239 29.52212379876689 13.58277072401948 2 2 4
513 1 22.006884577216063 25.41009989016247 15.009627366106235 -1 2 3
766 1 25.192894027767107 26.42749819913868 11.651543315628341 -1 -5 3
85 1 25.851517051685725 28.927147712222116 14.444656831256811 -2 -2 0
801 1 29.447362749241485 28.607432639233277 14.413549100209355 -1 4 -3
921 1 26.69622114572956 29.967375914787624 11.330324087778562 2 -3 -1
198 1 34.26827066588199 28.970144257405696 11.697589382670673 -2 3 1
617 1 30.48574120637268 25.483886976131725 11.606941807446304 5 1 2
985 1 32.64786350695832 29.144989388927687 14.569556689686362 0 -1 0
124 1 30.619098830189188 29.859976352985992 12.00663382763274 -4 5 -1
661 1 30.930971256862453 25.540915690061784 15.027186725713062 1 3 -3
298 1 2.1188119378932195 30.337712151840382 10.906956303348178 -4 1 0
842 1 0.827015616998618 33.161233734243126 10.451163299849847 5 0 -3
53 1 3.512846524834213 33.99986928943848 12.366284242715524 -1 -5 1
747 1 0.8131173549026869 32.17335694109936 14.114623178269584 -2 0 -3
509 1 5.9260122860517335 31.993532401524305 10.09094855223566 5 7 -1
830 1 7.314270880269431 33.98905070403469 13.610415205230968 6 -2 -1
470 1 7.745626156253243 31.077475010080256 14.854750378453577 -1 0 -3
409 1 10.398534931186031 31.78751848414392 11.650956657742752 -1 1 -1
74 1 14.371472385845111 32.53613318636253 11.904175948531993 -2 -3 2
72 1 11.420818198402731 33.61360149490788 14.548274596388035 -4 2 -1
909 1 17.167985742533094 34.68004323058075 12.450057866008747 0 1 -1
631 1 18.010790979682266 30.643158115200468 12.753480490077274 4 -2 -1
502 1 23.623514923829934 30.901288718756422 10.973762064289547 5 -2 -2
295 1 22.51985602934118 34.84197445706534 10.295628723122212 5 2 -1
827 1 21.319705332455438 32.96553998682228 12.501894197301612 4 -1 -2
228 1 29.374902323693014 33.05636988687456 12.692646138960907 -4 5 1
767 1 26.204947978489127 32.092555295282146 13.916153511361541 -1 0 2
425 1 32.32285479350608 32.28151436267594 12.443467116955652 1 -9 4
610 1 0.2321373200920475 2.944996291096709 16.70162130597085 0 -1 1