(written by ASE)

1001 atoms
2 atom types

0.0       35.22820204664032  xlo xhi
0.0       35.22820204664032  ylo yhi
0.0       35.22820204664032  zlo zhi

Atoms # atomic

1 1 1.23508 27.867000000000001 30.2742
2 1 28.029499999999999 8.7910299999999992 7.5353700000000003
3 1 19.646899999999999 13.8399 34.537700000000001
4 1 14.984400000000001 7.0748800000000003 34.752400000000002
5 1 0.23183500000000001 27.7151 4.4839799999999999
6 1 13.7064 25.438300000000002 19.720500000000001
7 1 5.58249 23.416599999999999 32.692599999999999
8 1 18.477699999999999 6.8427300000000004 27.036200000000001
9 1 4.8792999999999997 29.095700000000001 19.5806
10 1 3.4925299999999999 32.392600000000002 3.8668999999999998
11 1 33.679099999999998 19.559699999999999 24.3733
12 1 30.5945 30.5701 23.290199999999999
13 1 29.313500000000001 22.3215 0.93473799999999996
14 1 5.9611099999999997 6.0336699999999999 19.072099999999999
15 1 33.221299999999999 22.5337 26.687100000000001
16 1 3.00834 2.2253099999999999 4.0058600000000002
17 1 27.7959 23.922799999999999 12.9521
18 1 27.322700000000001 14.185 21.065999999999999
19 1 3.5453000000000001 5.7264699999999999 17.372199999999999
20 1 27.535900000000002 11.9902 16.404900000000001
21 1 20.918700000000001 4.9940899999999999 28.192299999999999
22 1 12.745699999999999 9.0751500000000007 26.791899999999998
23 1 13.838100000000001 11.240399999999999 12.0961
24 1 34.3718 7.9065799999999999 29.734999999999999
25 1 26.424199999999999 4.73977 27.739799999999999
26 1 20.051200000000001 27.218599999999999 17.088999999999999
27 1 14.7201 34.859400000000001 2.1975899999999999
28 1 8.2859200000000008 3.1756099999999998 27.754200000000001
29 1 22.465599999999998 18.5625 22.156099999999999
30 1 17.976199999999999 1.5952299999999999 0.61650199999999999
31 1 32.428800000000003 18.523199999999999 9.1501000000000001
32 1 9.2306500000000007 12.725099999999999 16.729199999999999
33 1 0.374774 8.2256699999999991 17.831199999999999
34 1 22.425999999999998 8.2773500000000002 7.7928699999999997
35 1 11.958600000000001 3.6334900000000001 17.0138
36 1 22.0001 31.200399999999998 18.813500000000001
37 1 28.1785 33.714599999999997 23.316600000000001
38 1 28.7971 6.9142000000000001 1.2717000000000001
39 1 9.5950799999999994 11.1648 30.0107
40 1 11.0197 18.001300000000001 16.799199999999999
41 1 21.6692 30.6051 6.7601199999999997
42 1 24.192699999999999 21.635300000000001 23.327500000000001
43 1 12.2774 25.4253 9.4718400000000003
44 1 18.938300000000002 24.937200000000001 11.036899999999999
45 1 31.296199999999999 5.9417099999999996 31.0336
46 1 29.4282 24.521699999999999 27.8066
47 1 26.4282 16.853300000000001 0.29742200000000002
48 1 14.4489 17.538699999999999 11.932600000000001
49 1 30.311699999999998 10.0823 16.607800000000001
50 1 16.166599999999999 12.587999999999999 13.311500000000001
51 1 13.852499999999999 0.318801 33.545200000000001
52 1 22.1127 29.816600000000001 0.25761899999999999
53 1 15.813700000000001 18.8081 8.3709699999999998
54 1 11.240399999999999 12.5101 26.984999999999999
55 1 16.737200000000001 4.4185499999999998 21.947900000000001
56 1 20.457999999999998 7.8502299999999998 3.4307300000000001
57 1 8.6589299999999998 24.572399999999998 25.049700000000001
58 1 16.682300000000001 23.0732 14.104799999999999
59 1 14.8353 15.5448 31.176600000000001
60 1 28.550699999999999 34.960099999999997 16.191400000000002
61 1 26.3565 13.618399999999999 25.737300000000001
62 1 13.5137 26.066099999999999 5.4779600000000004
63 1 4.1893700000000003 13.695499999999999 21.142800000000001
64 1 25.552299999999999 8.0346399999999996 13.767200000000001
65 1 20.6448 17.815300000000001 27.1571
66 1 9.8352500000000003 11.613899999999999 3.9761000000000002
67 1 24.9147 2.0779299999999998 9.2156099999999999
68 1 31.642600000000002 4.06149 7.2428600000000003
69 1 0.55249899999999996 12.569900000000001 0.64527199999999996
70 1 29.43 14.3262 18.389500000000002
71 1 21.6051 6.6374300000000002 13.501300000000001
72 1 1.1910499999999999 30.4207 6.1286100000000001
73 1 19.188800000000001 9.7705000000000002 32.903799999999997
74 1 31.200700000000001 21.966200000000001 10.122299999999999
75 1 14.6836 2.1036700000000002 30.0517
76 1 11.8529 15.0046 21.257999999999999
77 1 10.246 10.1966 14.530200000000001
78 1 34.238500000000002 22.700900000000001 12.4915
79 1 17.972999999999999 29.464500000000001 3.9217599999999999
80 1 28.156700000000001 34.986899999999999 32.018700000000003
81 1 5.9796199999999997 20.126000000000001 21.811900000000001
82 1 19.257899999999999 9.1023899999999998 18.4011
83 1 2.5919599999999998 23.1417 21.283799999999999
84 1 13.409700000000001 6.4219900000000001 28.350999999999999
85 1 15.0959 1.8811500000000001 9.8188600000000008
86 1 16.4011 4.5714600000000001 2.0503800000000001
87 1 13.1875 0.82213899999999995 19.721399999999999
88 1 8.3271700000000006 13.889200000000001 28.364000000000001
89 1 19.238399999999999 2.6667700000000001 6.8987400000000001
90 1 5.9334600000000002 12.0204 11.6187
91 1 11.19 4.5101000000000004 29.1571
92 1 8.1133000000000006 28.608000000000001 32.476900000000001
93 1 16.910499999999999 7.5775100000000002 3.17123
94 1 16.050999999999998 15.6843 10.0763
95 1 3.47071 27.374199999999998 32.064799999999998
96 1 32.795099999999998 10.355600000000001 31.538499999999999
97 1 24.537199999999999 30.316099999999999 27.862200000000001
98 1 18.537700000000001 2.9218199999999999 29.354600000000001
99 1 20.922699999999999 22.515799999999999 12.462
100 1 2.5748500000000001 34.752899999999997 2.2175799999999999
101 1 18.789400000000001 16.800000000000001 20.949200000000001
102 1 25.945399999999999 14.7553 14.702199999999999
103 1 31.165299999999998 6.1914899999999999 4.1494600000000004
104 1 16.3721 29.624400000000001 24.668600000000001
105 1 10.952199999999999 29.475999999999999 21.396000000000001
106 1 33.927900000000001 18.240300000000001 28.8338
107 1 12.345499999999999 17.438800000000001 5.3620200000000002
108 1 9.4439499999999992 23.139099999999999 28.157800000000002
109 1 28.972799999999999 14.5266 13.7501
110 1 10.1701 4.1045100000000003 5.8717300000000003
111 1 6.3158799999999999 28.3826 10.758900000000001
112 1 18.148800000000001 26.016100000000002 33.872799999999998
113 1 3.9067599999999998 5.1898600000000004 31.589700000000001
114 1 6.1154500000000001 24.370799999999999 19.087700000000002
115 1 30.6782 10.5642 2.1988699999999999
116 1 7.8533099999999996 33.307499999999997 32.170299999999997
117 1 9.6144400000000001 17.469799999999999 22.4742
118 1 10.900600000000001 24.101900000000001 2.6904599999999999
119 1 2.74682 23.6813 10.332599999999999
120 1 20.6311 9.4888999999999992 22.061199999999999
121 1 0.27018599999999998 30.624600000000001 28.3124
122 1 9.4329099999999997 5.7589100000000002 18.696400000000001
123 1 22.144100000000002 25.4892 9.4628099999999993
124 1 35.043700000000001 18.0854 11.428599999999999
125 1 19.3598 24.3371 7.7144199999999996
126 1 26.154800000000002 26.715 32.398099999999999
127 1 18.4252 25.5853 23.7041
128 1 6.5436699999999997 9.2489500000000007 30.1874
129 1 20.335599999999999 21.124300000000002 9.2617499999999993
130 1 17.973800000000001 0.42210199999999998 4.3784299999999998
131 1 34.942799999999998 2.88348 34.774900000000002
132 1 4.7736000000000001 23.222300000000001 14.1814
133 1 7.4087100000000001 1.87218 11.3101
134 1 11.907500000000001 12.769500000000001 0.32127800000000001
135 1 12.348699999999999 6.3458199999999998 2.1027300000000002
136 1 7.8495100000000004 2.4108999999999998 31.795100000000001
137 1 12.7052 22.870999999999999 34.114600000000003
138 1 16.489799999999999 4.60222 26.058700000000002
139 1 32.014200000000002 24.065799999999999 14.479699999999999
140 1 5.9536899999999999 7.9782999999999999 0.116998
141 1 22.604099999999999 5.2533799999999999 5.2055300000000004
142 1 6.0430900000000003 14.432499999999999 26.284099999999999
143 1 21.956800000000001 8.0416899999999991 34.549700000000001
144 1 23.390699999999999 13.811999999999999 4.2315500000000004
145 1 26.221900000000002 33.795900000000003 27.927800000000001
146 1 32.732500000000002 24.561199999999999 22.4603
147 1 3.3079000000000001 18.280799999999999 4.0848899999999997
148 1 26.873100000000001 26.7239 28.405200000000001
149 1 2.6082200000000002 24.266200000000001 17.302700000000002
150 1 25.7059 25.261700000000001 24.654800000000002
151 1 19.089200000000002 30.820900000000002 34.908499999999997
152 1 35.001199999999997 24.961099999999998 33.014000000000003
153 1 14.5732 27.806100000000001 15.0312
154 1 8.9434799999999992 9.0013500000000004 11.742800000000001
155 1 24.783300000000001 28.940999999999999 19.7057
156 1 15.3881 26.694500000000001 2.7187199999999998
157 1 19.904900000000001 33.892600000000002 12.5402
158 1 13.8187 6.3208200000000003 23.979800000000001
159 1 6.8389199999999999 5.96312 32.031700000000001
160 1 23.358699999999999 14.9442 12.8291
161 1 10.6409 31.0289 35.329900000000002
162 1 29.454999999999998 18.036799999999999 6.6726099999999997
163 1 15.7637 13.9472 0.75114599999999998
164 1 4.9472199999999997 5.59002 13.4552
165 1 32.386099999999999 13.5115 0.211644
166 1 21.9236 4.6287799999999999 8.3177099999999999
167 1 10.8003 30.488 14.4939
168 1 30.610299999999999 2.08548 10.041399999999999
169 1 34.505800000000001 6.2706299999999997 6.56271
170 1 27.860800000000001 31.124700000000001 8.3805599999999991
171 1 16.562999999999999 23.186699999999998 34.729799999999997
172 1 12.2895 11.1761 19.5212
173 1 26.617999999999999 2.2658100000000001 12.105700000000001
174 1 28.580100000000002 21.101800000000001 29.0337
175 1 8.5698799999999995 12.6288 8.8154299999999992
176 1 8.70533 16.2592 32.391300000000001
177 1 9.6311999999999998 9.7468800000000009 17.826899999999998
178 1 13.960699999999999 28.771999999999998 19.609400000000001
179 1 18.686 23.883400000000002 1.6324399999999999
180 1 30.894600000000001 31.1006 0.86739999999999995
181 1 11.066599999999999 19.385999999999999 27.817299999999999
182 1 16.222300000000001 15.3889 15.805400000000001
183 1 8.0185999999999993 8.3709399999999992 20.990400000000001
184 1 10.577999999999999 24.548400000000001 6.4095800000000001
185 1 33.529200000000003 32.504199999999997 24.165500000000002
186 1 10.5024 32.845799999999997 28.387599999999999
187 1 13.195499999999999 3.1174599999999999 26.700399999999998
188 1 18.423500000000001 7.6240500000000004 15.318899999999999
189 1 22.6021 27.456600000000002 6.82639
190 1 10.9236 2.5111500000000002 34.4495
191 1 0.41328799999999999 28.3202 8.7042999999999999
192 1 12.2125 7.80504 21.3627
193 1 26.671500000000002 27.517900000000001 14.4109
194 1 34.927500000000002 21.7148 22.053699999999999
195 1 27.2818 35.064700000000002 3.01505
196 1 29.466000000000001 14.68 22.9633
197 1 34.331099999999999 33.8797 1.7919700000000001
198 1 15.4754 11.247400000000001 21.5458
199 1 13.2804 30.036300000000001 11.5396
200 1 5.6384299999999996 4.78315 1.7904
201 1 8.9992800000000006 22.624300000000002 8.4217200000000005
202 1 30.112500000000001 7.9848600000000003 18.8093
203 1 27.541 18.094100000000001 27.8934
204 1 26.534300000000002 23.600899999999999 9.4811599999999991
205 1 22.896799999999999 8.1423900000000007 28.757100000000001
206 1 0.78316300000000005 31.068100000000001 31.840299999999999
207 1 19.2059 4.3104899999999997 33.026400000000002
208 1 12.373100000000001 21.269500000000001 8.7329699999999999
209 1 34.6815 29.115200000000002 23.927900000000001
210 1 20.517499999999998 22.211200000000002 4.5746200000000004
211 1 8.8564399999999992 7.3717199999999998 1.8980600000000001
212 1 1.81087 30.3767 18.7849
213 1 7.46462 27.661300000000001 13.9176
214 1 17.9194 35.375700000000002 15.774800000000001
215 1 15.3949 3.6122700000000001 34.371699999999997
216 1 8.7421900000000008 21.468900000000001 17.877700000000001
217 1 9.5306599999999992 8.5530799999999996 27.624300000000002
218 1 27.825800000000001 29.989699999999999 2.5053100000000001
219 1 32.015999999999998 27.602799999999998 21.1661
220 1 1.66672 9.0906900000000004 5.9815399999999999
221 1 35.1218 10.557499999999999 3.1808299999999998
222 1 14.533099999999999 12.828900000000001 24.594799999999999
223 1 25.962800000000001 14.042400000000001 34.387700000000002
224 1 26.920100000000001 8.0625199999999992 26.866700000000002
225 1 10.7567 16.811900000000001 12.667199999999999
226 1 25.7317 10.8408 23.6601
227 1 6.5411599999999996 31.337900000000001 13.236499999999999
228 1 28.790500000000002 8.2035199999999993 30.3202
229 1 22.938700000000001 3.64757 16.065899999999999
230 1 6.4306900000000002 29.119599999999998 0.525119
231 1 27.187999999999999 32.200400000000002 17.2317
232 1 28.029800000000002 1.81717 7.9538399999999996
233 1 29.4604 4.1246299999999998 29.5077
234 1 16.716200000000001 22.482299999999999 10.1294
235 1 30.239000000000001 13.1546 26.4057
236 1 15.172599999999999 22.472300000000001 18.791799999999999
237 1 4.7110599999999998 7.8243 10.602499999999999
238 1 28.508299999999998 35.017299999999999 11.318
239 1 9.3032599999999999 0.98529800000000001 18.055800000000001
240 1 13.9518 23.319199999999999 2.1377899999999999
241 1 15.875 14.827 20.366800000000001
242 1 28.069299999999998 9.0571300000000008 3.43465
243 1 33.137900000000002 28.914200000000001 32.368600000000001
244 1 13.4689 21.3705 12.2751
245 1 15.9444 11.322800000000001 17.370100000000001
246 1 31.361000000000001 14.611700000000001 31.053599999999999
247 1 7.3897599999999999 15.405099999999999 21.244800000000001
248 1 17.080200000000001 10.010300000000001 29.0794
249 1 12.279400000000001 10.9878 22.932700000000001
250 1 29.196400000000001 27.145800000000001 24.164999999999999
251 1 35.045400000000001 9.9186499999999995 8.9621899999999997
252 1 14.8835 24.024799999999999 7.3454800000000002
253 1 25.696300000000001 23.841100000000001 29.734300000000001
254 1 10.2584 27.152699999999999 10.991
255 1 22.627300000000002 22.389199999999999 20.297699999999999
256 1 2.4112200000000001 11.2125 15.4817
257 1 30.392199999999999 31.725100000000001 32.324199999999998
258 1 3.3719299999999999 28.5474 2.76512
259 1 24.246400000000001 18.497399999999999 12.763299999999999
260 1 25.651399999999999 9.8527199999999997 34.969299999999997
261 1 18.052499999999998 -0.045923400000000003 32.936700000000002
262 1 13.290800000000001 33.004100000000001 31.110700000000001
263 1 10.620200000000001 4.9461700000000004 25.416899999999998
264 1 4.4132300000000004 21.234999999999999 0.28138400000000002
265 1 17.015499999999999 8.6453199999999999 7.2066400000000002
266 1 25.5549 8.0405099999999994 21.231200000000001
267 1 26.396799999999999 18.219999999999999 32.054099999999998
268 1 2.5863800000000001 2.3648500000000001 30.8261
269 1 14.8758 34.717199999999998 6.1454500000000003
270 1 33.721600000000002 0.35850100000000001 33.221299999999999
271 1 13.4146 20.549700000000001 32.793199999999999
272 1 25.498999999999999 14.093299999999999 18.208200000000001
273 1 17.357600000000001 5.6774399999999998 12.811999999999999
274 1 32.645600000000002 4.72262 10.3028
275 1 26.614899999999999 26.597300000000001 7.5756199999999998
276 1 25.629999999999999 9.3194199999999991 10.6554
277 1 27.194800000000001 15.1219 29.876100000000001
278 1 14.91 32.503799999999998 15.0265
279 1 34.1935 12.680999999999999 6.3755100000000002
280 1 11.489800000000001 22.856000000000002 18.751899999999999
281 1 28.877400000000002 16.303999999999998 26.744599999999998
282 1 11.485900000000001 20.587599999999998 1.95001
283 1 0.16869000000000001 17.504300000000001 16.604900000000001
284 1 4.1596799999999998 33.269300000000001 32.094200000000001
285 1 11.8367 0.28612700000000002 26.658100000000001
286 1 3.2668599999999999 14.523099999999999 29.085599999999999
287 1 14.0822 31.537299999999998 33.450299999999999
288 1 15.275 30.122699999999998 9.2824000000000009
289 1 20.062000000000001 3.8909199999999999 24.1496
290 1 34.686700000000002 9.0534199999999991 25.713699999999999
291 1 1.1369800000000001 6.3172300000000003 9.9534300000000009
292 1 21.526199999999999 24.187999999999999 17.709599999999998
293 1 32.981999999999999 30.907599999999999 8.1935699999999994
294 1 15.2376 33.474899999999998 24.163900000000002
295 1 22.175000000000001 34.2729 21.179500000000001
296 1 2.7825500000000001 34.319499999999998 27.653300000000002
297 1 25.1938 7.6215000000000002 5.8042600000000002
298 1 26.330200000000001 21.332899999999999 25.7986
299 1 15.275600000000001 14.4605 7.2288300000000003
300 1 24.050799999999999 22.758400000000002 11.4567
301 1 31.904499999999999 13.1694 19.73
302 1 3.1223299999999998 8.4544499999999996 30.557700000000001
303 1 34.981299999999997 5.2433300000000003 19.660399999999999
304 1 30.271799999999999 17.9011 29.662500000000001
305 1 5.1434699999999998 21.602799999999998 18.792999999999999
306 1 1.13954 25.589400000000001 12.769
307 1 16.751999999999999 33.255099999999999 0.24626700000000001
308 1 13.2774 14.331200000000001 13.335100000000001
309 1 1.22299 6.6494999999999997 13.9588
310 1 24.101199999999999 18.252400000000002 19.096900000000002
311 1 26.883199999999999 20.829000000000001 15.1073
312 1 23.584 13.1273 30.056999999999999
313 1 2.3487800000000001 26.705500000000001 19.739000000000001
314 1 8.0788100000000007 21.773399999999999 31.150200000000002
315 1 33.082299999999996 24.4664 9.6911400000000008
316 1 12.0684 9.0004799999999996 31.1206
317 1 23.394300000000001 3.5759500000000002 19.209099999999999
318 1 22.790800000000001 7.9248000000000003 31.842500000000001
319 1 16.606999999999999 6.7623100000000003 17.8903
320 1 34.377299999999998 19.1524 1.0816600000000001
321 1 8.0343 18.221 13.664199999999999
322 1 8.1400500000000005 16.152000000000001 9.4249200000000002
323 1 12.844200000000001 24.712900000000001 15.962199999999999
324 1 31.662700000000001 18.087700000000002 33.802100000000003
325 1 17.9863 24.786100000000001 30.285799999999998
326 1 13.273199999999999 1.1201399999999999 12.535500000000001
327 1 22.497900000000001 11.475199999999999 32.752000000000002
328 1 9.6835199999999997 13.225099999999999 12.5776
329 1 12.295299999999999 32.627099999999999 6.4066299999999998
330 1 30.0443 5.2069999999999999 26.18
331 1 17.978000000000002 28.0825 21.0623
332 1 28.064399999999999 31.386900000000001 13.4787
333 1 17.093 31.429099999999998 30.703800000000001
334 1 0.86079899999999998 27.9254 34.060299999999998
335 1 21.809699999999999 24.196300000000001 24.221699999999998
336 1 33.1265 32.636600000000001 4.6775000000000002
337 1 23.906300000000002 30.208100000000002 16.189900000000002
338 1 12.2502 22.2685 30.337399999999999
339 1 6.7070499999999997 11.511900000000001 22.050799999999999
340 1 24.129899999999999 5.9894299999999996 10.7567
341 1 3.7543799999999998 34.316299999999998 16.615500000000001
342 1 21.626899999999999 21.034300000000002 1.2449699999999999
343 1 11.637600000000001 26.754200000000001 22.925699999999999
344 1 23.5047 11.8375 14.0884
345 1 26.734500000000001 22.908100000000001 33.471600000000002
346 1 28.973400000000002 28.758199999999999 11.092499999999999
347 1 11.416 33.222299999999997 12.0329
348 1 22.501200000000001 4.2335700000000003 31.241
349 1 12.5692 2.5517400000000001 2.1936499999999999
350 1 5.8350600000000004 9.3719099999999997 14.254200000000001
351 1 9.1805099999999999 35.159999999999997 2.4130199999999999
352 1 30.789999999999999 23.672000000000001 20.022600000000001
353 1 27.6065 1.36835 19.4649
354 1 13.490500000000001 7.3685400000000003 5.3383500000000002
355 1 6.88652 18.742799999999999 18.9711
356 1 20.876999999999999 25.056000000000001 21.202100000000002
357 1 16.6311 21.616 22.771699999999999
358 1 21.610900000000001 18.616299999999999 6.6709399999999999
359 1 6.5867800000000001 9.7118099999999998 3.6739199999999999
360 1 18.746500000000001 6.8278999999999996 0.26652399999999998
361 1 28.814399999999999 8.5346299999999999 10.968299999999999
362 1 3.8623699999999999 32.871000000000002 20.741
363 1 13.5624 22.7332 22.254300000000001
364 1 1.68397 17.536000000000001 27.0442
365 1 34.558900000000001 15.0527 29.267099999999999
366 1 25.8447 17.808399999999999 9.0458999999999996
367 1 3.9470499999999999 19.931000000000001 26.627400000000002
368 1 12.475300000000001 28.029800000000002 30.814699999999998
369 1 18.8337 9.8243399999999994 12.837
370 1 13.3569 7.9072800000000001 17.914400000000001
371 1 2.8399299999999998 1.5609599999999999 22.513300000000001
372 1 26.855499999999999 1.67838 28.678599999999999
373 1 32.252000000000002 25.405200000000001 3.20051
374 1 14.4396 21.398800000000001 5.4132600000000002
375 1 3.8741400000000001 27.525300000000001 8.7398199999999999
376 1 21.473199999999999 0.053470700000000003 34.745800000000003
377 1 1.3330299999999999 22.103200000000001 2.3204799999999999
378 1 28.686800000000002 5.72438 20.067799999999998
379 1 17.959700000000002 19.387699999999999 11.520300000000001
380 1 3.0985200000000002 17.474 14.073600000000001
381 1 10.0075 21.011900000000001 14.4551
382 1 35.419600000000003 2.8818899999999998 16.3399
383 1 9.50244 23.859999999999999 21.2455
384 1 6.68276 0.55254400000000004 15.1602
385 1 19.001200000000001 34.104999999999997 23.425999999999998
386 1 26.050799999999999 2.3009900000000001 5.5372899999999996
387 1 17.175599999999999 24.314399999999999 20.695
388 1 12.710900000000001 11.285299999999999 15.706300000000001
389 1 34.627899999999997 11.7287 11.8842
390 1 14.3992 18.792899999999999 29.281500000000001
391 1 29.453299999999999 33.344200000000001 19.9422
392 1 32.262099999999997 16.520800000000001 4.6429600000000004
393 1 18.627500000000001 21.8369 18.752700000000001
394 1 31.684000000000001 13.281700000000001 3.8618700000000001
395 1 19.204000000000001 34.186199999999999 19.938800000000001
396 1 31.476299999999998 10.940099999999999 8.03383
397 1 32.995899999999999 28.398900000000001 1.4993000000000001
398 1 28.671500000000002 30.919899999999998 5.3874700000000004
399 1 24.578399999999998 33.915799999999997 24.517299999999999
400 1 6.87812 10.886799999999999 26.139099999999999
401 1 29.788799999999998 29.316199999999998 16.184699999999999
402 1 32.595599999999997 9.8303200000000004 0.0055710899999999999
403 1 3.5726399999999998 18.753799999999998 20.3002
404 1 31.0623 18.909800000000001 18.154900000000001
405 1 19.201799999999999 27.510100000000001 27.286899999999999
406 1 31.670200000000001 7.8088499999999996 8.7440700000000007
407 1 33.497900000000001 0.93487900000000002 11.260300000000001
408 1 14.2995 25.1675 13.1891
409 1 3.56419 14.000299999999999 2.44997
410 1 22.3568 1.33297 6.7528300000000003
411 1 23.723299999999998 26.1418 16.444500000000001
412 1 33.225099999999998 0.20577000000000001 29.9345
413 1 34.557600000000001 13.3935 32.606000000000002
414 1 16.7072 28.197900000000001 0.24132799999999999
415 1 34.246299999999998 3.29291 31.449999999999999
416 1 14.697100000000001 25.142499999999998 29.6995
417 1 21.757200000000001 0.45108199999999998 26.154900000000001
418 1 7.1001500000000002 22.9754 5.4340099999999998
419 1 21.927 27.1328 33.608600000000003
420 1 8.5572300000000006 34.180599999999998 6.6347100000000001
421 1 25.973700000000001 14.855 7.0695800000000002
422 1 8.3948599999999995 16.550899999999999 25.712399999999999
423 1 3.51397 21.8202 6.2406699999999997
424 1 20.777200000000001 32.637 32.340899999999998
425 1 8.8529 0.42407800000000001 29.178999999999998
426 1 5.7324900000000003 27.505600000000001 5.1496599999999999
427 1 18.080200000000001 15.519500000000001 12.9422
428 1 34.933300000000003 18.334399999999999 6.1150500000000001
429 1 25.1325 2.62148 31.735299999999999
430 1 30.793900000000001 10.940899999999999 11.443199999999999
431 1 11.826700000000001 10.527200000000001 9.4700100000000003
432 1 15.591799999999999 18.786999999999999 21.727
433 1 8.2079799999999992 27.805499999999999 25.858699999999999
434 1 2.8294100000000002 10.176 1.7093700000000001
435 1 16.09 18.2181 33.3688
436 1 34.775199999999998 32.955800000000004 11.1751
437 1 5.2074999999999996 1.3029900000000001 1.2758100000000001
438 1 6.1238599999999996 11.433299999999999 18.5273
439 1 23.643999999999998 16.8978 16.4985
440 1 8.3763199999999998 10.5528 0.86786700000000006
441 1 9.5777900000000002 18.697399999999998 3.51816
442 1 1.4639899999999999 1.7429600000000001 9.5110299999999999
443 1 20.295200000000001 24.502199999999998 14.7128
444 1 17.7029 16.477499999999999 1.9597500000000001
445 1 16.651900000000001 28.648700000000002 17.287800000000001
446 1 5.37453 0.71836800000000001 19.1265
447 1 12.4406 15.389200000000001 28.0215
448 1 27.442599999999999 32.375799999999998 34.265000000000001
449 1 28.6372 4.2741699999999998 5.62704
450 1 17.893000000000001 27.8064 13.8392
451 1 4.1978099999999996 26.5501 0.10394399999999999
452 1 23.126100000000001 2.2969400000000002 28.9588
453 1 20.1325 29.906099999999999 29.0381
454 1 30.1691 1.02335 29.526900000000001
455 1 2.9603199999999998 30.8826 9.8968299999999996
456 1 16.724399999999999 12.919600000000001 32.624699999999997
457 1 8.5681399999999996 25.41 15.971399999999999
458 1 28.420100000000001 6.4711699999999999 16.5124
459 1 26.136700000000001 27.010999999999999 11.059799999999999
460 1 12.112500000000001 17.531600000000001 9.0062300000000004
461 1 17.9223 12.673999999999999 6.5269000000000004
462 1 21.031300000000002 29.3232 11.488200000000001
463 1 25.9861 33.6004 6.5982099999999999
464 1 26.029599999999999 20.0823 1.03739
465 1 19.977 2.4916800000000001 14.0632
466 1 13.454599999999999 13.3178 3.3262299999999998
467 1 28.916699999999999 5.57369 12.493600000000001
468 1 9.2003299999999992 3.0104099999999998 14.0456
469 1 1.5424 25.004799999999999 1.2104900000000001
470 1 23.3809 26.387899999999998 26.566099999999999
471 1 25.999700000000001 30.019400000000001 32.422400000000003
472 1 16.859100000000002 1.44411 13.078900000000001
473 1 30.042100000000001 17.721599999999999 2.0668299999999999
474 1 22.045000000000002 12.2384 25.174600000000002
475 1 34.880899999999997 0.47678599999999999 24.009499999999999
476 1 26.239000000000001 5.50169 31.133199999999999
477 1 1.82294 20.090599999999998 33.341299999999997
478 1 14.6526 29.291699999999999 5.2838500000000002
479 1 28.727 28.539400000000001 30.559000000000001
480 1 21.986000000000001 31.421299999999999 4.0358999999999998
481 1 10.624499999999999 24.793800000000001 32.380699999999997
482 1 28.3996 23.790099999999999 23.848800000000001
483 1 30.122399999999999 21.4405 32.015099999999997
484 1 34.162199999999999 19.068100000000001 19.6341
485 1 14.695499999999999 25.731000000000002 33.216900000000003
486 1 22.443300000000001 22.673300000000001 27.274699999999999
487 1 33.871600000000001 8.8463200000000004 21.525099999999998
488 1 16.927600000000002 15.283099999999999 23.729700000000001
489 1 1.34413 21.329000000000001 18.951799999999999
490 1 1.5517799999999999 28.049700000000001 15.499499999999999
491 1 0.221861 17.081 34.430100000000003
492 1 34.485100000000003 30.162099999999999 21.071899999999999
493 1 33.987400000000001 9.1996699999999993 14.7113
494 1 6.1512099999999998 23.273 9.1361399999999993
495 1 24.304400000000001 20.683700000000002 29.634399999999999
496 1 10.7836 6.6792800000000003 15.050000000000001
497 1 33.495100000000001 30.058900000000001 17.8797
498 1 1.6827799999999999 11.6227 18.803999999999998
499 1 19.710100000000001 10.8369 0.95072699999999999
500 1 34.5398 26.794599999999999 18.698799999999999
501 1 27.6219 3.13259 2.0715400000000002
502 1 23.829999999999998 33.217199999999998 10.0847
503 1 26.976199999999999 24.2178 16.271000000000001
504 1 17.8629 18.294 24.796700000000001
505 1 27.895600000000002 23.403300000000002 4.35379
506 1 34.257300000000001 7.4767900000000003 2.1506699999999999
507 1 9.01431 19.3398 7.3289900000000001
508 1 4.1819600000000001 20.388999999999999 30.9163
509 1 20.48 33.675800000000002 6.1779000000000002
510 1 30.247299999999999 21.541699999999999 13.4476
511 1 27.286200000000001 15.500400000000001 10.5747
512 1 3.1250399999999998 20.2256 10.8973
513 1 13.773999999999999 11.3157 33.935499999999998
514 1 26.153099999999998 5.1891800000000003 14.3089
515 1 18.855499999999999 17.5503 8.0011100000000006
516 1 34.815300000000001 22.420400000000001 34.810099999999998
517 1 34.395000000000003 13.9467 17.433199999999999
518 1 10.075200000000001 9.3730399999999996 24.419699999999999
519 1 31.866099999999999 33.272599999999997 13.640599999999999
520 1 24.673999999999999 24.418299999999999 5.7416600000000004
521 1 4.6691900000000004 7.1470500000000001 7.6947400000000004
522 1 12.5418 15.8208 33.969900000000003
523 1 10.218299999999999 23.520499999999998 11.6851
524 1 19.427800000000001 13.9902 2.56311
525 1 10.6854 2.7784200000000001 20.537800000000001
526 1 2.6450300000000002 23.463699999999999 33.424900000000001
527 1 16.651299999999999 5.4684200000000001 9.0776000000000003
528 1 4.7708300000000001 15.910399999999999 23.555
529 1 10.983499999999999 19.0883 24.427499999999998
530 1 3.2120600000000001 31.296600000000002 0.743668
531 1 27.7818 16.865500000000001 17.096399999999999
532 1 29.334099999999999 33.948799999999999 6.7619499999999997
533 1 27.950600000000001 11.8558 28.762699999999999
534 1 9.1812900000000006 26.344799999999999 4.4200100000000004
535 1 27.468800000000002 11.937799999999999 8.8295600000000007
536 1 32.252000000000002 22.019400000000001 2.2576200000000002
537 1 0.80035299999999998 13.8653 26.408000000000001
538 1 0.53426099999999999 24.8797 8.30138
539 1 17.8706 30.4847 11.237299999999999
540 1 2.46469 21.176300000000001 23.7851
541 1 9.4286600000000007 16.497800000000002 18.775400000000001
542 1 18.958100000000002 19.818200000000001 3.99654
543 1 7.1677299999999997 6.4269999999999996 25.7484
544 1 20.9086 13.0825 12.2593
545 1 4.2218600000000004 25.5824 22.3947
546 1 28.6434 25.825199999999999 20.9558
547 1 5.7200600000000001 17.5733 15.6686
548 1 19.159600000000001 31.154499999999999 16.1815
549 1 19.088899999999999 12.664899999999999 30.805599999999998
550 1 1.20387 3.6434600000000001 25.6434
551 1 9.0942399999999992 22.7667 34.826799999999999
552 1 12.081 1.06498 5.2997899999999998
553 1 18.0015 20.7377 7.2416099999999997
554 1 19.1693 6.3798700000000004 6.4514699999999996
555 1 4.1948100000000004 29.8659 15.057600000000001