LAMMPS data file via write_data, version 2 Aug 2023, timestep = 8000000, units = metal

1001 atoms
2 atom types

0 35.22820204664032 xlo xhi
0 35.22820204664032 ylo yhi
0 35.22820204664032 zlo zhi

Masses

1 22.98976928
2 14.0067

Atoms # atomic

702 1 3.171699645167364 0.39624082715132264 1.5173852576074236 -3 5 -3
963 1 4.654876311325877 2.39375896617268 3.244092362261757 0 2 -1
268 1 0.9878351954038733 4.224121845852383 4.5313942843129125 2 0 -2
372 1 8.952179088502907 3.8239642648673153 1.666722878157258 1 -2 -1
211 1 7.676138584655668 1.5084938820045064 3.508315582540637 1 0 3
948 1 10.963193860310009 0.516568883623904 1.7761068904171937 -2 5 -3
474 1 13.64564992927809 2.725786484905494 4.59368774593833 3 0 -7
894 1 12.731695880534962 3.416715685325094 1.5962962349522603 4 2 3
648 1 16.054363701169347 4.14220301659301 1.749056003197657 -4 5 2
509 1 17.384966606451904 0.9893591235700987 3.449830266048141 -9 4 0
839 1 23.032991500116598 3.333059915556773 3.8353177743483546 -3 -2 0
689 1 20.276760594890344 3.4605221319838924 1.2910456613751282 4 -2 3
556 1 24.59752540316223 0.11601106343999845 1.8332421927127938 5 1 3
540 1 24.44174645522965 3.489517782563666 1.1156839307665734 -3 1 0
810 1 20.960854358662075 0.2584232313045831 2.060617116653454 -4 5 4
490 1 26.211175399736646 2.3353411101167203 3.8874310360612556 0 0 2
918 1 28.40187922809194 2.1493444475482435 0.42744404532496105 3 2 -1
135 1 31.054110202736325 3.064185594572049 3.5579656535937976 -2 -3 5
350 1 32.269610016066025 4.0201516113239455 0.5472452081783795 1 -3 3
483 1 34.59905326560816 1.6832547854512199 2.499877242045174 -2 -1 1
952 1 2.9341467415408973 5.117640369352182 1.7452096939355841 0 -1 3
119 1 0.6611933927299836 8.119443648251142 5.019729050618585 -1 8 1
21 1 3.2934726134832664 9.362343165479624 2.9333248414601 -3 3 -2
352 1 0.149371875323553 7.610179489550157 2.021335914736166 -1 -3 3
606 1 6.1780522117688825 6.722904544728779 1.195843255362434 1 -4 -2
745 1 7.519316581751655 5.828819205857718 4.1091044217256805 2 2 -3
363 1 8.387281961005776 9.370264251456264 2.769129204240685 2 -1 -1
775 1 11.52506358398561 6.8872304288147905 2.365660210758659 2 4 4
105 1 12.808407275911962 9.225523164259117 0.49904657349820747 -3 6 -3
167 1 11.792564806533395 9.648974385309144 4.671482140385369 -5 5 4
250 1 18.519140242393917 6.6793237397696155 3.776965558874766 -3 -4 4
50 1 16.610645985218596 8.793762702162738 1.8319388055627894 0 1 0
344 1 19.217998933777853 6.9161730360869225 0.5231036697864211 -3 1 -2
44 1 22.12641198730068 6.596255985799869 2.822924328793062 0 -2 4
514 1 20.149411709210252 9.883243922310834 3.5189897068292613 0 2 2
797 1 25.95783479902906 6.702695052685588 3.4702517090668192 2 0 -1
651 1 30.605466402525266 6.781436838902206 3.4823715522163914 -1 3 -2
508 1 33.74840777357719 5.538167458039318 4.07363996574681 -1 -7 0
748 1 31.526397661013938 9.81629423488565 2.487182765951042 2 1 -4
989 1 32.229456758403074 7.389416965128623 0.718274900947985 -3 3 6
56 1 1.5059760542970164 13.124258826141013 3.9528683175904584 -1 1 -2
463 1 5.031001885358075 12.125880327466808 4.413795806792204 3 3 6
374 1 8.564548296520924 13.941693587498676 0.6036454706027842 -2 1 -1
409 1 6.259778486475439 11.412129642353252 1.3830321199657283 -1 0 -9
379 1 11.152361841899468 11.883152449531234 1.6328347868793638 -3 4 -2
423 1 14.863090319362048 11.25693583603911 3.5908657914353315 -1 3 3
917 1 14.355713750272393 12.612870351949804 0.030358279015324285 4 -2 0
120 1 13.15385731526596 14.326183903529587 4.822023439743559 1 0 2
575 1 18.954042536440102 11.373285188046092 0.9167163134287171 0 2 3
823 1 17.08596267414039 13.633176301324468 3.4299811887462717 0 1 0
585 1 23.219640225952055 12.221765721210328 1.1991634626124514 -3 -1 1
858 1 23.811025789414348 10.096134930706471 3.3904999554916975 -3 -2 2
37 1 27.75749370744561 10.31979934690145 1.9998052333469873 -3 -2 -4
629 1 29.9516122292782 12.300198133374899 4.24600916769886 0 5 -1
974 1 29.093490642662243 14.797123364011549 0.8001709020532176 -1 4 0
318 1 26.33868521287856 11.649846923862926 4.889006870987922 2 2 3
24 1 34.50684382432029 11.103348241840758 1.8556419812364013 0 1 -4
667 1 2.7332047549553806 16.83992699816113 1.7522824667441743 -4 1 -1
114 1 3.9733479628446795 16.064823457173347 4.961859442966949 3 4 0
842 1 1.0464114349866858 17.309769297950226 4.405471780921549 2 0 0
888 1 6.9178563790132435 16.915893104818235 1.0723657097889636 9 4 -4
258 1 5.451531411464834 19.728112587644016 1.7021099153943564 1 -5 5
670 1 9.604055788997929 19.55695343754746 2.8690282326126275 4 -4 0
794 1 9.517330797856026 16.089730580907016 3.6905884605096335 1 -4 4
594 1 12.675324644242847 15.271460217089148 1.5013769361285798 6 5 -2
46 1 11.175006403467961 16.99113999110871 0.0022319058677030524 1 0 3
81 1 12.586318260333805 18.320602451959427 4.698376362186297 3 4 4
850 1 19.92048316610211 15.118920675550424 0.7354912807780357 1 1 -4
694 1 16.04841895065331 18.23868810484378 1.9772226619021722 2 -3 1
397 1 18.606128343612532 16.861555591648745 3.684794488924418 1 -2 0
17 1 23.29646277135507 17.749487563699233 0.3688528231640785 -2 -1 -3
134 1 22.910661773169206 15.996662007382453 2.639445663643778 0 5 0
751 1 25.96200760305019 15.994700183192306 2.07478960408955 2 0 3
770 1 27.339377042033675 18.556609573778093 1.5965309841874002 4 -4 3
898 1 33.48276062935529 18.554208588287793 1.642902240234747 1 -2 1
63 1 30.6638924716922 15.744037178861321 3.1778650702036773 1 0 3
604 1 34.665075885689994 15.40808627210949 1.648415892569346 0 3 -1
358 1 30.80999772982544 19.38152040132903 4.22637769642213 5 1 1
278 1 2.049766796196429 20.431408695537307 2.6904829917923396 -1 3 0
453 1 4.4374690275762 23.300165212979472 2.907489864973448 -4 -1 -1
49 1 6.357682713735285 21.039019289784562 5.015490542891858 -1 -2 4
701 1 7.571168493533061 23.01961311954906 2.101899226321541 5 -2 -1
879 1 15.038420912158053 21.154935301971488 3.591638266754017 0 -2 5
76 1 12.203169388193862 22.38607924947793 2.5123228923935335 0 2 4
305 1 10.564218922612595 25.15621788870657 2.5971904464470956 -1 -8 0
281 1 14.99531622431168 22.321604774564907 0.16680380544207196 3 0 2
753 1 16.863297226193147 24.908538517796767 0.41144480582126414 3 0 -1
412 1 17.956825178264463 22.056340193467406 1.8826839909303998 4 -4 5
712 1 19.396436831783216 21.135607426687816 4.444262334891627 1 0 -4
399 1 20.768209521774928 20.419849847913625 1.4923291945388777 -4 0 3
925 1 21.073352330113288 24.177755034354927 3.877847232367613 1 2 -5
529 1 22.354271081725354 22.754175102355305 0.42839024146003174 4 -1 -2
994 1 24.323721756937587 20.13400729160692 3.938593676315142 -3 -1 -2
107 1 24.951547365641165 24.77961985566619 4.218290986634521 -4 -1 1
975 1 25.548033103065194 22.566272690431855 0.10850440722635823 0 2 2
23 1 27.895093478085833 22.864552046055227 2.979412332714037 0 -1 0
196 1 30.62466977230878 20.49944734787628 0.885448246385248 -1 2 -4
807 1 34.9081045415479 23.47240497682733 3.0541416841912667 3 2 7
450 1 32.259899207755346 24.483444065938315 4.435399821832999 2 0 -2
190 1 33.93956222642754 21.383503647420813 0.6664182287472323 -3 0 6
953 1 2.60112177437552 25.8453232294379 2.04359272144137 -2 0 0
762 1 4.070800404346876 29.882000313052426 2.82190109705999 1 0 1
48 1 1.203202556988612 29.062637768715437 3.6195502024109154 3 4 -1
54 1 7.10385633913531 25.8822954732144 3.9966758841555436 3 1 -5
608 1 9.14895856196609 28.48114429520713 1.8495158881354268 4 0 3
600 1 5.716001776191007 25.768729252016513 0.05533221412796317 -3 -3 -5
535 1 10.949956802733826 29.86413982914544 4.56404600897088 -3 0 -6
361 1 14.027804795641108 27.186168521275132 2.755828206271225 -7 0 3
927 1 17.452722939125263 26.279967059709758 3.7548012830639377 -1 3 4
885 1 16.566569001443764 29.074238819726347 1.5598724227462817 0 2 1
824 1 20.46618885891349 25.703870862499826 1.1210985063108092 5 -4 -4
976 1 20.138399879368645 29.688075968451137 4.04410511638304 3 -3 3
328 1 23.072156857616196 27.62414985068528 2.687679381140077 2 3 -4
939 1 23.92799558299487 29.61170036329348 0.23711958275676373 0 -1 -1
531 1 25.048666423791325 25.521221576936597 1.1844080813174067 -2 1 3
786 1 20.515406952628073 29.410517638743194 0.4892978679070009 -3 1 -6
240 1 28.813425677221417 25.83265089346362 4.351758446308149 2 4 0
254 1 25.714103328250722 27.95343123125182 3.7740936866501507 -4 3 3
708 1 27.457616246435972 29.22206593106304 1.4077735559085696 -1 -4 1
697 1 29.19821613289943 25.507229993037104 0.5478948070729762 4 1 -3
971 1 34.77806268731917 26.07682145369294 4.5315136238829865 -5 1 6
395 1 32.14679961944453 27.643007972829913 2.977142170430348 3 2 4
477 1 33.01724777760117 25.521496435020772 0.4477980774255383 -1 -3 0
467 1 1.3237720500455081 35.21283580735401 4.683647543289163 2 -1 -1
280 1 1.7517388009789796 30.96728134811761 0.9194967377848647 5 -3 3
161 1 3.054641139233452 32.6414668606655 3.7481807200929573 -1 7 2
444 1 4.382562881198123 32.69338675800283 0.6007003799370736 0 3 0
82 1 7.088170265814702 35.15055623579135 0.3125686065890757 1 0 -1
554 1 5.863105498117776 34.275516370124755 3.145009322293854 1 -3 4
836 1 10.008747897049567 32.73467541361543 2.8932292508383535 6 -2 -3
390 1 7.3258655372648365 30.26008277940868 4.880058304976432 -2 6 -1
557 1 13.620997597850174 31.482888678067717 2.3741464052485224 7 1 -3
742 1 14.521869503618978 34.87135762046897 1.4114565176778577 -3 0 2
740 1 14.949396152218604 33.98868977693051 4.720065037070026 -4 0 -3
335 1 17.15880293407915 31.553189679567474 3.408696596069651 -2 0 5
672 1 19.17133184181982 33.00761816491525 0.6850605639447939 4 -6 -2
627 1 21.37968183691664 32.491737523111055 4.170856507271576 -1 2 3
357 1 24.93796068127107 31.746706515409322 3.5990855651449443 -4 -1 3
428 1 24.390891873489434 34.876245032655376 4.9911759131768365 -2 -6 -4
311 1 29.461363213354648 31.298070875387314 2.9792168114946933 1 2 4
207 1 28.13265551117214 34.71974709909976 3.5075784818457985 1 -4 0
553 1 27.564076496845544 33.53253707216048 0.46679148524872005 5 2 3
935 1 34.73131913762701 34.32672529919892 0.8913058878515031 -1 -7 2
565 1 31.430042289336523 35.1402654409332 2.121657753469252 0 -1 4
229 1 33.084543006865275 31.279700222601168 2.362918970163824 0 4 -1
904 1 33.60055587907424 34.111655726176025 4.996804912055576 -4 2 0
277 1 4.054529494074813 1.968926454692805 7.282228007573708 3 1 4
206 1 0.7008126786705569 1.3587254187700448 8.860361470162452 0 -1 2
539 1 3.3167606386979656 4.234700492358506 9.466712327594115 1 1 -3
310 1 9.87803692868855 3.270831740569672 5.216074816063842 3 5 1
252 1 8.395216522006333 2.0076603135398114 7.481845642399185 2 -6 5
27 1 13.32735582329585 2.976475958652104 7.401477865901519 -2 2 -4
300 1 14.781166819536452 0.22774242622336566 7.759572660492816 -3 -1 -2
326 1 19.832951633463445 3.5095512277848275 5.108546469146707 -1 2 -4
788 1 16.46647644301931 4.685156991139524 6.617900577515551 -5 4 -5
34 1 17.952114937035432 1.5710085128047766 9.14137430227841 5 0 0
937 1 18.42657588006453 4.999137359453574 9.259076452460901 -4 -1 0
458 1 23.163841438855616 1.3228542172420583 9.106962705148177 -3 6 -1
359 1 26.229509897491194 4.499360173831177 7.843352553314107 -6 -2 1
440 1 26.807834153077163 1.191650523232426 8.334958939239431 -3 -1 -1
275 1 28.908341127554902 4.879761975377601 5.936429516899477 1 0 -2
437 1 28.518818294941685 4.733102514232146 9.781337969296455 0 -1 -3
494 1 29.44309263119845 1.1755050263186717 9.493007929304495 -5 -1 0
635 1 30.103485657538357 1.3301238973448672 6.232707045756148 0 0 -4
292 1 33.586182086297434 2.0004715664794506 6.523164553474708 -1 1 4
183 1 35.024201761316846 5.0031381392389145 8.493791388726928 -4 -2 7
476 1 31.824724845258885 4.931475108051817 7.341215487751387 1 0 3
527 1 4.173228027591956 5.6938386466639175 5.861032940578096 -1 4 3
152 1 2.5791443651921204 7.560938216083522 8.656385434741232 2 2 5
642 1 4.939657253916484 9.294302005454556 9.82940524097049 2 1 2
269 1 6.867976700447161 5.523307167034132 8.495781298995174 0 0 -1
385 1 5.871397823731284 8.525125171108588 6.879294001851272 0 1 3
715 1 8.196257898823715 8.102275890571825 9.789748992217467 0 1 -6
479 1 13.29517635944339 6.373027524428353 5.062994098271072 -2 4 3
95 1 13.269152481436462 5.979340963280539 9.669460639738295 -4 -1 0
755 1 10.075722160619616 6.163468449129319 7.212212355753449 0 3 0
586 1 12.079997100518886 8.56020416689408 8.098289134475335 1 4 -3
760 1 15.990160929717666 8.54893043161962 5.717312240535626 3 0 1
108 1 19.97176442579899 7.9769382128328825 6.502374729270621 2 4 1
782 1 16.761525233821807 9.061757493609585 8.766213296133163 0 1 -2
264 1 22.026327906169637 5.274121270052734 6.879226335727274 -1 2 1
873 1 24.575096990127037 7.793845774152685 6.029674260329795 2 -4 0
451 1 21.057082430226664 7.3303387013567365 9.845306302746744 -2 -1 3
214 1 29.95991909382317 7.592958624519069 8.782652533473223 1 5 3
695 1 28.933040409177096 9.073399314676431 5.447648191226609 -1 8 -1
377 1 32.62531206919839 8.359456683861088 6.961118559466091 -2 0 -1
959 1 3.046677688814291 10.638761060588324 6.727254835613635 -3 -4 7
109 1 4.308652273056886 13.162175490585957 9.324500556131742 -4 -1 -1
555 1 0.7270270195460569 11.607498918245218 8.477036187557188 0 -1 -6
984 1 7.16141907285102 14.679678037648458 5.73990621139314 1 -2 3
899 1 8.148129069068377 13.361387115432855 9.089753210813365 -4 -1 1
141 1 8.100171992793381 10.588242213266751 6.976360149088938 0 -1 2
1000 1 10.300009958151183 13.24325987793311 5.426595854095339 0 -3 3
484 1 11.657677520467876 12.351176468940135 8.77358654434041 -1 1 -1
369 1 14.485798214864566 11.842591095200396 6.91829997695767 1 -1 2
632 1 18.618301878367046 11.706847664100723 5.72938376354849 -1 2 5
654 1 18.46712227338169 12.632104985135225 9.150026380110676 -1 -3 3
924 1 20.042280538832724 14.721181167363753 6.1442011033403245 -3 -2 4
366 1 16.418951900215127 15.061918274498023 6.967725466004328 2 2 -3
168 1 22.836208264777483 13.359795203049062 5.09326837669601 3 0 1
301 1 21.85125975833279 10.621388977657363 7.415749266417031 1 2 0
182 1 26.52541470302082 14.745532124907959 5.269532167059708 4 -4 -1
91 1 26.48081465528078 10.596732075402201 8.101061113358274 2 2 -5
878 1 26.518952192230802 15.006778719251676 8.551445249892893 2 -1 -1
392 1 29.135747852606254 13.03109784030141 8.354442645021297 2 3 -7
860 1 33.04908256287427 11.347162117227708 5.7278616634283 -3 3 2
96 1 33.07982943774759 14.793084037460938 8.42513035616048 -2 2 0
342 1 31.69154856929942 11.093874296884023 9.071227757289623 -5 -1 2
793 1 0.7517310557693169 15.993522084452124 7.311353646728074 2 6 -4
649 1 4.858172154797819 16.576164405657458 8.252540386664297 -3 2 3
85 1 1.8884378554790626 17.676143942177294 9.735985258330317 0 2 6
787 1 3.421940386904625 19.1668417708524 5.982326003077675 3 -2 -2
820 1 8.09279722785485 17.972524955934375 5.871074210218187 -1 -4 -2
795 1 6.518396455477582 19.99386325065594 8.165259100722421 0 -2 2
101 1 10.973350502258302 15.874636451089652 7.730848952069519 -1 -2 0
523 1 13.509157680902216 17.704973277606058 9.496902515440324 1 -2 3
227 1 10.393924574942336 19.759367780648567 7.818238733644405 -3 4 1
641 1 15.915774359146527 18.7162647777277 5.352872895980629 -5 3 1
133 1 18.990737531924612 17.41540755661647 7.375592384803549 -3 -1 1
743 1 21.878686483979124 18.71762404595242 5.310539048298553 -2 1 1
500 1 23.31170487038737 15.368125753293144 7.19498335066977 2 -1 -5
934 1 22.359357209851137 18.740654163507266 8.420940160842518 -5 -2 7
52 1 25.871122596874542 17.448637259663627 6.664536075184393 0 5 -2
596 1 29.80474424825769 16.925433536080746 6.659209940032164 -2 0 3
315 1 32.980185548929555 16.088292990254995 5.602791583271943 0 3 1
808 1 31.004807450856582 19.799992575376262 8.089401030389254 -6 -2 4
131 1 1.0433314849800623 23.261339303436973 5.497558018455045 -2 1 -1
233 1 2.623840513747624 22.079591213361976 8.652609338812203 1 7 -1
992 1 4.965473986005698 24.091297003018088 6.056102351062074 0 -9 -3
727 1 9.565213720127517 22.45331137565884 5.173858315754373 6 -5 4
615 1 7.980445150427716 23.082607369754914 7.8653476320872295 -3 -5 -8
322 1 12.504343054799026 23.500024363441778 5.832668499634876 0 -1 1
980 1 11.007819566881118 23.102268674013192 9.36678322942896 -1 -5 8
790 1 13.258274313169734 20.17086856813469 6.907232640040626 -1 5 -1
433 1 15.230618263853609 24.687057247647736 8.17593704368555 -2 0 5
826 1 16.331707761518874 22.301286222672196 6.687285080170764 0 1 5
519 1 18.556651611790006 24.944921509985623 9.88854867688077 1 -4 3
908 1 18.562438429053913 20.984214537563304 8.388587109480072 2 0 -4
757 1 15.302401647364432 20.610237381102593 10.03618107845682 -2 -1 2
421 1 21.565452937419906 22.401583170506974 7.510930056171839 -6 -5 2
929 1 24.8547455291877 23.368355426844765 7.1085120901324945 -2 3 -1
309 1 27.61750526161624 20.929300682392228 6.865894538301243 -5 3 1
906 1 30.084351641429922 23.534943271003517 7.1474235170856115 -1 1 -2
1001 2 34.02968657347278 23.36794560769983 5.16904230132562 0 0 0
714 1 33.701058500466225 23.84412971933565 7.463634530655981 -4 4 -4
972 1 34.01897518095733 21.019985072921777 5.858267183423923 -4 -1 -1
841 1 3.4925225712023735 26.820692138040116 5.173849043957274 1 4 4
271 1 1.5855548787827396 26.26035320605084 8.005215772924677 -2 -3 -3
143 1 2.983554806227705 29.93298780538105 6.560507658812716 7 -2 -4
146 1 9.097109465925937 26.115328710752895 6.392769517924263 2 -1 2
99 1 6.8129722342365335 27.77674054106669 7.2370997654222045 2 6 -1
852 1 9.845438066180883 29.703210301624168 7.9003307658706365 1 3 6
38 1 14.535356411048225 29.301671343852007 5.479273558356045 1 4 0
90 1 12.265467248096003 27.078887523615936 6.698418983094839 -3 -2 0
424 1 12.950259517527249 29.303492075262486 9.245282098039565 4 0 0
699 1 17.8996538947762 26.0517796809857 6.712410335337404 -1 -1 4
911 1 17.272629620306784 28.218712820459658 9.583204679877367 0 0 0
818 1 21.577862283423293 27.395136484018444 5.735110675662253 -3 2 -2
1 1 21.209896127417 27.393015023449433 9.264713816278524 1 -4 2
191 1 24.648629853091055 27.45612799872259 7.508520956300042 -1 -2 3
195 1 29.80801048278327 29.099305178987528 10.034262421764845 -1 1 2
581 1 30.027270646554967 26.888686765910677 6.845479984946155 0 0 3
711 1 34.06944466379307 28.282978705718417 6.866912309712942 -5 -2 0
348 1 1.206087984533174 33.12903132358249 8.030024652839916 0 -3 2
391 1 4.643478751927135 33.34985612041998 7.600809270769925 -2 6 2
302 1 4.804676731009748 31.31974717065153 9.97824734236306 2 3 1
362 1 8.892626948187216 33.79686623876292 6.2822485438332105 1 2 1
88 1 11.502283830016825 35.19388845568549 5.286514015304545 3 -2 -1
29 1 12.516093796842616 32.12856761033167 7.323968551485036 1 -3 -5
502 1 10.2539615056165 33.414605914976605 9.16108246591374 5 2 4
6 1 19.142859140155064 30.197776350805892 7.129575166990616 -2 1 2
528 1 18.620063362715143 33.94106858837414 6.127057161694928 2 2 -5
25 1 16.51662853912944 32.279208919169506 8.148443828335772 -3 -3 -1
817 1 23.470775708374077 30.504017605969892 6.238518738816531 0 -5 2
413 1 21.00047064149349 33.49189729818566 8.197633860019879 0 -3 -4
625 1 24.91140198879908 33.09949101960187 8.381349223820454 3 -1 3
598 1 27.19527515870516 30.40461312534844 7.916340639471342 -7 -6 -5
201 1 27.755800152826072 32.272500629671306 5.879999498805475 -8 -1 1
683 1 29.58183824280197 33.47834612961561 8.999567751255958 -4 -2 2
145 1 35.13872617760976 30.906727262868266 6.868323992922375 4 4 -3
42 1 31.62387214705284 30.821097048169808 5.731792103737842 2 -1 5
609 1 33.16221603090821 34.44330140452236 8.483839414106633 -1 1 2
505 1 1.736752963416825 1.9853963483284365 13.38250722189934 3 1 0
816 1 6.80243554744254 2.6597262375028463 10.876916775678868 -3 -2 6
330 1 5.403985315276661 4.41326989852233 14.349589472375419 -5 -1 1
243 1 6.260749697731667 0.2788445683392288 13.615010992153765 2 -4 2
682 1 10.165713104952282 4.558859272913626 10.082927033916643 -3 -1 -1
698 1 10.1225550395462 2.2715442969307533 13.121941084563653 -5 -4 4
619 1 12.822754769751873 1.6443594795615146 10.41429794793394 -1 1 -1
181 1 12.569508142494982 0.5160288701653344 14.535862421851967 2 -1 -5
40 1 12.875211726350479 4.298095436656396 13.166978958233098 3 5 4
128 1 15.641449419666298 3.6295046854408746 10.589970121458457 -1 -5 2
819 1 15.848143877641531 0.9721999482366677 12.586449453200192 1 -5 5
30 1 18.273666274874095 3.1445542710671215 13.266032888656389 -1 5 5
669 1 23.326093655561053 4.476957411787991 10.129527174063947 4 3 1
289 1 21.260068141236946 1.5126926769616045 12.673258305669428 -5 -1 2
941 1 26.447419704087547 2.449334618159184 12.1135611491726 -6 4 2
347 1 29.29364907188302 3.5570041691536214 12.581821725848462 -2 3 0
438 1 33.82457934414036 2.3695404986185054 11.304887265222359 0 0 -1
307 1 34.455191413769285 3.5092356015757913 14.790236550644458 0 4 -3
680 1 0.9991254376011919 5.257436064973414 12.164944024466678 -4 -1 0
140 1 4.401147851230839 6.618016663053193 11.748933729433077 2 5 -1
132 1 2.388496896049716 8.714694629620295 14.81677262329906 -2 2 1
869 1 6.9939013728008135 9.167877070235017 13.58608543178365 1 1 -1
113 1 8.13865213175119 5.623429486950519 12.311837693215699 -5 1 3
231 1 10.695756695869893 6.731622816724518 13.944327260971997 3 1 0
966 1 12.022235816659418 9.17408573545447 11.366341051199075 5 3 0
944 1 14.113357642827937 8.05332583382029 14.479037741213096 0 -1 1
339 1 16.744886045155564 6.581968839225409 12.303004752529413 4 1 2
892 1 18.710690683989345 9.69062822222801 14.787809177413825 3 1 -3
965 1 23.983143495958654 5.081178835364243 13.373286141250334 0 -7 0
83 1 20.70581708638757 5.964734587023439 13.450860352522074 2 3 -4
503 1 24.73093881269677 8.236593321935592 10.58555915089713 2 3 -3
754 1 22.10105104466889 9.24047950015514 13.235040240757304 -3 -1 -1
170 1 29.14557084618991 10.024471100145208 10.593245829267481 2 -2 -2
111 1 27.794491320600027 6.677507530463323 11.450150295249733 2 -1 2
228 1 30.19376873250838 7.226203901677983 13.345465806872003 -4 -1 -1
962 1 28.64262223571316 9.946111878494944 14.266364913911232 -6 6 1
558 1 25.97600866924081 9.081739190008651 14.101376459978557 0 -7 1
355 1 33.855794110685984 8.667000204083456 10.301871780983447 2 1 0
185 1 33.92471823400047 7.583182424227438 14.972310525202817 0 -3 0
923 1 32.241379208259275 5.459653100517164 10.698887840362564 -4 6 -3
996 1 1.0519193276128438 14.544422351212573 11.075884196582912 2 -5 3
329 1 2.2683128487373554 10.100170955434942 11.532975977540374 -4 3 6
811 1 0.4679009020512954 12.300287084288238 13.846891237630826 5 2 -1
225 1 6.517320601924211 12.439839027908995 12.820480669763105 -2 1 -2
802 1 9.237963423608825 11.48721608200905 11.8171834092657 -4 2 -1
568 1 12.406599126693278 11.639339752614509 13.310114384901821 -3 -2 -6
663 1 14.25169734158522 13.987461927035499 11.13525087876878 -2 -1 2
317 1 11.089464262223053 14.73661805540666 11.498682109596379 -2 0 -3
314 1 13.226760530494735 14.88422303529177 14.98207927093961 -2 3 0
933 1 16.30129727194884 11.143422468642544 12.157435440984479 0 -1 1
610 1 19.889368425263847 10.349516396126006 11.675132653136545 -3 -4 2
946 1 16.985576671625207 14.62305799721957 12.894106152259516 4 -1 -1
92 1 23.399851068268735 11.908321204286352 11.045471374324713 0 2 -4
84 1 20.23223431743151 13.200046318188464 13.082020466615148 0 0 -1
2 1 23.35037565945179 14.7933351034601 12.092293514637573 3 -3 -2
486 1 26.91100554074864 12.19945432035224 12.04560532174898 0 -3 -5
354 1 30.334283138401084 13.793035310893186 11.804855501355862 -1 -3 0
678 1 33.38221776519098 14.040415043725426 11.92746274004693 -4 1 0
985 1 31.773682445631287 10.787478133181178 14.017652805936471 -3 0 -2
221 1 0.40932711772779434 16.904639612294538 13.284153965783739 5 -2 -1
403 1 4.518475990946112 15.60619157631109 12.273666898263091 -7 -2 2
728 1 3.264251465827508 18.809262945960473 14.82746231368463 -2 -2 5
455 1 4.582589164692262 18.91281688962572 11.500615194598701 2 5 1
320 1 7.580809415224078 17.420914360996917 10.368797932486439 2 -4 -1
3 1 7.109546505319387 19.298295132661533 13.844391709477645 4 -4 -1
386 1 9.257284108592593 17.205417879325427 14.967347463708492 -3 1 -1
564 1 6.461610388378108 15.559635688762558 14.991150184624317 2 -5 -3
345 1 10.794919663774705 18.01094806117671 11.233650676548963 -3 -6 -5
518 1 12.226229823014323 18.244021519292254 14.77568096150909 -3 -1 2
999 1 13.670728149342022 17.009612842184364 12.500728565840815 -1 -4 -2
393 1 17.44818298036997 17.46673564743445 10.271251014294549 -4 0 -1
983 1 20.022343047558962 15.43935238513586 10.852225142891175 -5 -2 4
459 1 16.285486308706666 19.027554857535176 13.340158093839777 -2 3 2
981 1 21.01696556473069 18.608039476453268 11.183928304335545 -1 -2 -3
835 1 22.4446951729469 18.311143479260153 15.000015059789597 0 9 2
710 1 24.95779988908301 17.701395560139698 10.28085682771174 2 -1 -6
520 1 29.178503670414294 16.8800589802786 10.132299766614718 -1 2 0
100 1 25.313448272289133 16.126736496908585 14.748814284334536 1 0 2
381 1 27.137040843191464 15.702167816395576 12.026560155518004 1 -1 -2
15 1 27.503761799557086 18.37360282698521 14.111068178444574 0 4 1
427 1 32.9722501952454 17.23586167353233 10.673712646237203 -2 -6 3
373 1 30.52069757495522 16.96537355451922 13.268206930315834 -3 -6 3
18 1 1.1747088287537324 20.406734025967687 11.922308883642605 -5 1 2
173 1 5.480198543119221 22.70670889499217 10.989612419821707 1 1 0
104 1 8.552889092112155 21.462497765741297 10.94520662245087 -6 -7 1
53 1 9.02548174869799 24.466543295174063 13.174895439730532 4 -6 -2
232 1 10.278741858592968 21.18947333139026 14.357157360794721 1 1 2
587 1 13.319877941966098 20.58058014849801 12.48273851951169 4 -2 -3
257 1 14.932310492538814 23.814509579138825 11.597315177422622 4 2 0
245 1 12.31521054610381 23.973512529045017 13.495523349393556 2 -4 -2
353 1 17.810777829957793 24.082966909653383 14.630719548416927 5 1 2
926 1 17.897844511278016 21.855354038543926 11.96981080591886 2 1 3
664 1 23.463073861899943 20.79560636337576 11.491245850638057 -1 4 2
155 1 21.254612119613405 21.9632477324944 14.092259454702692 1 3 0
180 1 22.10349246074665 24.80084129732981 12.104013131869163 5 3 4
982 1 25.266648740753237 22.171682069220505 14.930047479651408 0 2 -1
764 1 27.336512150136524 20.800554126415744 10.609092671968147 0 1 -1
263 1 25.687244949808974 23.786513160789884 11.188590692685063 -3 2 2
778 1 28.119093596224882 24.18796052651491 13.547959941817359 -1 1 -1
266 1 28.886017153480243 25.10638080972089 10.155106707149137 -2 -3 2
420 1 30.112761345119267 21.308263721289734 12.908824617219997 2 3 0
259 1 33.41695934154226 21.091680823507055 10.251200747379285 2 1 4
407 1 33.204757527115845 20.346075667026916 13.698032264164627 -3 3 2
224 1 35.13581468502053 23.46530375111038 14.758556613258863 2 1 7
722 1 32.50387186988943 24.079949946549654 11.808216607097606 -2 1 0
7 1 1.5167779451848749 29.598709895287467 10.152435696635024 -1 -2 1
773 1 1.8128086073386926 25.726768935147057 11.736633462234675 1 -9 0
657 1 4.716825153364542 26.955306656873393 10.198648059172946 0 -3 -2
122 1 3.6924142209706603 29.080237110441622 12.824716263569082 4 -1 -1
912 1 0.08175464159215544 27.858002393709004 14.172619616745049 4 3 1
783 1 8.2169209223577 26.248635133051465 10.757057287109047 1 3 1
851 1 8.62081292344522 27.653106069284853 13.931324715869094 -3 -1 0
383 1 5.2165088766650705 26.020125317301247 13.64876912025599 -4 -8 3
532 1 12.055890803159121 26.594056996009854 10.995483620829999 1 2 -2
812 1 11.94915490371596 29.207811764382257 13.309294944208306 -9 -5 4
262 1 14.838442622754966 26.818895717376936 13.005847108341372 4 -8 -1
919 1 17.76084353302407 28.039394733681064 12.760839610309361 -2 4 0
286 1 21.146709824299137 26.411329483860413 14.86721228372185 -1 1 -2
977 1 24.870919065793995 26.015289357687916 14.588456744021448 -1 -2 -1
64 1 22.76549794903466 29.208179346667894 12.928243178784692 1 -3 -6
487 1 26.688136603432824 27.83478307700632 11.685661902073235 -3 -1 -1
720 1 33.39376039747924 27.510708697412156 10.21003270979519 3 2 -1
230 1 30.306860058263016 29.650378118540964 14.499080644454374 -2 2 -2
341 1 31.55458400409898 26.754673778193393 13.263265367220402 4 3 -3
112 1 3.4945214727754363 34.78365037607489 11.219428060269992 1 0 5
685 1 0.43986531577645555 32.86304222528836 11.629508473285133 -2 0 -3
602 1 1.6356380845837915 31.091491364820502 15.096113224943586 0 0 -2
516 1 7.30307552451468 34.148354725381324 10.079943358785176 -2 2 -1
460 1 9.829974086696671 34.16883456693476 12.08160416656805 4 -1 1
785 1 5.893705399395899 31.788929050406413 13.075854566555448 1 -7 2
261 1 8.85023570167202 33.148368168382945 14.583430392807406 -4 0 -3
123 1 8.421855722678979 30.70835619680884 10.958852298667601 -5 -3 -3
496 1 12.194079225242275 32.50360264835511 11.66623151967691 -1 1 1
914 1 15.584501718335579 33.93523444419256 10.41584061925463 -4 0 2
316 1 16.153127412044693 30.848397860718887 11.256281497164297 -3 0 0
675 1 15.183962246567413 33.02068237580378 14.88764654663482 2 4 2
398 1 17.420275490319344 30.79250428639225 14.999231323783043 4 2 -3
562 1 19.08794588309113 33.70246012030573 11.767587732853592 4 -3 -4
700 1 24.572026616994634 31.479517312542793 10.928438810664428 1 -4 -4
846 1 20.794258527186045 30.81240716340311 11.646675021302167 5 -2 0
394 1 23.099700237255494 34.281931994434906 11.599483249121446 1 -3 1
189 1 21.941006265096956 33.37934566251323 14.626464075371056 1 0 -5
69 1 26.6769218891193 34.11915544047905 11.655940401092964 -7 0 0
815 1 28.23815581422647 34.62982148757049 14.76366934220822 -1 4 -3
288 1 28.377152437136754 31.1739915286244 11.787939231633292 -2 -3 2
690 1 25.530734037559306 32.25550807288132 14.61281834176992 2 3 -2
572 1 32.921175395749785 31.444220927041716 11.03018705393571 7 -7 -4
887 1 31.09723072368151 34.85950619323512 12.205212692246393 0 -6 1
766 1 33.667542410674216 31.064352977313412 14.186039070673091 -6 -3 0
940 1 34.52603441105311 35.01218248010452 13.902824520890269 1 2 1
270 1 1.4409712533734922 2.298068656589507 17.223459652680397 -2 2 7