LAMMPS data file via write_data, version 2 Aug 2023, timestep = 12000000, units = metal

1002 atoms
3 atom types

0 28.422298224662292 xlo xhi
0 28.422298224662292 ylo yhi
0 28.422298224662292 zlo zhi

Masses

1 6.94
2 14.0067
3 1.00784

Atoms # atomic

454 1 2.6904333132271794 2.406557525738417 1.2979092904866325 -5 -6 0
396 1 2.989488139168116 2.9000011906193355 4.011535920516684 -2 1 2
770 1 0.208025001641697 2.3795635988300163 2.0700709102781594 -3 -1 -3
57 1 4.556130072125629 4.5486459109010715 2.7419420255404745 2 1 10
945 1 1.305836073159031 1.0771400455677298 4.326544858333281 6 1 1
479 1 8.211834771885691 3.5017879653540307 1.553506158201114 1 -5 3
660 1 5.4320396336318115 2.5544502439398284 0.8505412919383546 2 -3 -1
902 1 6.259961141414085 1.6088643307292123 3.920331277765264 1 -1 1
51 1 8.53966292396779 0.6061952565997034 1.84549173580838 2 -6 5
833 1 10.098092328325045 1.2331070471821295 4.421347064252797 1 4 -1
244 1 11.287155836266372 2.4201982094134062 2.218335051856155 4 -2 -2
729 1 10.112072932872426 4.298639536317059 3.9461676365852343 3 6 1
157 1 14.525490300340604 2.400521492835266 2.0028215386111636 -5 -4 4
710 1 15.782939593134033 4.689048826229589 3.8911810002300524 5 -4 2
288 1 18.053270291875357 3.5589538590024854 2.722276776808096 2 1 1
465 1 18.485540072650984 0.0992538683766388 3.0353651294217032 -1 6 -3
817 1 15.856549036352783 1.142587157468121 4.016242409477753 3 5 -5
643 1 17.481964427434395 0.8555015595759062 0.9362396292551816 -4 -2 1
230 1 20.231985743321317 2.0491768008267703 1.2702188891785267 2 -7 1
626 1 22.1730875325773 3.497236801554914 3.2653057010277036 2 12 -3
149 1 23.135046082381365 4.3000060744491435 0.6658888685646002 -1 -8 4
251 1 22.943539451162682 0.8671833101022233 1.4470865284511285 -1 1 4
926 1 21.708784911011996 0.4636717780250964 4.057556688195492 -2 1 -1
997 1 25.324930077941783 3.37300294100752 2.4915046841684956 -1 2 -4
322 1 28.28342821852113 3.522472355135285 4.294431805956676 -1 -5 4
761 1 26.397873905729448 0.8231408098506577 2.507222841719243 -4 -3 2
695 1 1.6820185939302639 5.047719265651185 2.3093060421949736 6 0 5
659 1 4.613192175236406 6.062822254126365 0.07303003522461406 1 7 0
750 1 4.426081188911658 7.313241077975633 2.544360034823551 6 3 6
775 1 0.24194931803113315 7.463261241720111 0.19938891492427055 -3 0 9
253 1 2.5695688366450216 8.533425901535725 0.9641846364898332 3 -6 6
511 1 8.471427610206165 6.971432056261841 4.3543137775510505 1 -2 3
289 1 6.81140312096704 6.2911988232880045 1.8695056274531685 -2 8 -1
312 1 7.257769827493906 9.165973270500121 2.9141175370306898 0 -7 2
351 1 9.000850783097775 8.505033819142907 1.0462234332712466 -4 -9 0
5 1 5.2572382777512345 8.892863258583192 0.46834068049759886 0 0 2
862 1 11.472611483301097 7.75082752178952 4.086380812397568 1 3 -6
419 1 10.006173952374636 6.030735835067498 1.7880072473475892 -6 6 -6
364 1 12.575378013016234 4.8851415652624635 1.8538811599658627 -2 7 3
848 1 12.083786804744763 7.185024290870787 0.13268449886984626 -3 4 -9
860 1 15.270006793289989 4.966359916275451 1.1226089039150091 9 2 -2
422 1 14.218104489299767 7.242794423576174 3.206440470356444 -5 3 -4
456 1 17.498120661628093 7.042312621792624 2.6865090315113176 4 -6 6
737 1 18.1009503146294 6.834821901118254 0.18358472096891382 3 3 -7
441 1 14.771617420058941 9.333242218115467 1.7945293425556506 2 -4 3
79 1 20.65099756432546 5.485158090470555 1.1127509550445582 2 4 4
82 1 20.751326864946815 8.637389063981836 0.6708167055511522 -1 3 8
187 1 23.33432615603577 8.483059612500796 1.074733203591783 -4 0 3
884 1 20.277141504291333 8.288001502033067 3.384285593059723 3 -5 -3
745 1 27.436470836579606 5.843979109117611 2.786335400842989 -1 12 1
425 1 28.411964245187843 9.135358130944581 2.98893496940031 5 2 -5
74 1 25.774918113595824 8.957191441552443 4.0505787815026295 0 2 -2
448 1 26.168565353733108 8.09079895617471 1.3232824642178813 5 0 0
554 1 24.59764929825095 6.6608445532900795 2.9045136498059834 -1 3 -1
237 1 27.86878492242569 4.80534793734426 0.23457643791405566 3 3 -1
372 1 3.656923068485585 10.212761166005032 2.800815558748946 2 -6 -1
283 1 2.1545617939691013 12.232449537191727 3.356770239253252 3 -2 0
841 1 1.116473627009286 13.877633119999896 0.7204605115591405 -1 3 5
231 1 1.362416828590974 11.604459849767915 0.8870059845111922 -8 -2 -6
941 1 4.041314009795095 11.570579000731383 0.5475399924315633 10 2 0
690 1 5.637603662540678 12.338746690310575 2.9271757443296313 -3 7 2
147 1 7.250814191483472 10.61215362436172 0.3864826364422411 4 -2 -1
545 1 8.57221620503585 11.020683803708454 4.007029249725101 -3 3 0
192 1 8.593006576965534 13.771307989049976 3.4596602395018135 3 -6 7
150 1 12.414869288853826 10.295299463554462 0.7084834044504695 -4 -1 -4
595 1 11.625224975941261 10.702719269144856 3.707536573811299 -3 0 -2
95 1 11.211667929417564 13.296803570035207 3.317869533433478 -3 0 -4
493 1 9.874998522049452 11.344601652566668 1.4377410496210172 -2 -8 10
762 1 13.977863644950697 12.270458524388172 3.6222058584894214 4 5 1
851 1 9.641194422276378 14.047502816212225 0.8102611989061543 -2 -3 7
220 1 18.146726060982314 10.261449867165426 2.8638412553274213 -4 4 10
630 1 17.04878998905958 9.859514675612383 0.5735491099510688 0 2 0
232 1 18.020219420942627 12.457655994047798 1.7308957441519792 0 1 1
215 1 14.70374817534062 12.106106317292038 0.8092869651780026 -5 0 -3
621 1 23.22288416198776 10.701969138181132 3.9879898707908596 0 5 0
141 1 20.400863973269047 12.876658143050792 3.2005258110123895 0 7 0
294 1 21.14441747885459 10.725946523338475 2.0355655829065737 -2 -1 0
96 1 23.18305585613651 13.513487437367935 1.2746313043590356 6 5 7
459 1 19.839918006915703 13.795061027578129 0.323644922887199 5 -3 -6
749 1 23.423516892995767 11.129474090215957 0.09778902126035419 7 -13 -6
68 1 26.84657197981012 10.783130872480152 0.3233815170338721 3 2 -1
963 1 25.399962174208454 11.41016027549652 2.5204574975301415 -9 2 -1
986 1 25.841829494751817 13.446579593614077 0.11544245392949645 -4 4 -3
673 1 27.1176638325658 13.124620571610533 3.0178759247978038 5 -4 3
184 1 23.730457275732892 13.61055234509613 4.139089527483235 -1 0 -5
103 1 3.285477117595546 14.494552682302176 2.2365700223015588 -5 -6 -2
937 1 2.007446386357675 16.89814762551536 0.2460888166756555 9 6 -8
613 1 0.7990553814970646 14.630307618391681 4.160915831630316 4 4 -1
207 1 2.8542858323495897 16.890832787650623 3.7334162930488097 8 -5 5
850 1 4.749066987027384 18.19336555234144 4.027153157265713 5 -4 -3
992 1 8.331814347475532 16.852722837704615 3.455647465123271 -3 0 -5
948 1 5.126966030887876 17.064361858936056 1.2148859403509187 7 3 -3
225 1 6.929954830367395 14.604163374061185 0.9756477223826017 -3 10 2
326 1 6.0133294152958285 15.189029474778938 4.219208214524144 -3 7 2
25 1 8.47190327070047 17.58888111269019 1.0648533238560978 4 8 2
552 1 10.832693610568407 16.034433307570005 3.4714459159194626 4 2 -6
370 1 11.190495842478457 18.47467898127263 1.005302913852155 3 0 5
796 1 12.121239672871535 18.71429745239629 4.493357274866086 -3 -6 -4
208 1 13.487560266619504 14.933094326327954 1.8226008578182313 3 2 5
323 1 14.12887864882388 18.788190204314123 0.1769210562812563 -3 -1 2
105 1 16.207331592177674 17.048635587909597 1.251394277809481 -3 1 -6
559 1 15.998060908788679 14.474193928480014 3.206917368428624 2 1 3
256 1 18.560535924482334 15.624674432599576 2.436659356105043 -3 2 -5
264 1 14.559153207724862 17.328413561753568 4.019667400718274 1 4 -1
507 1 21.486258242833497 15.562428850832351 1.726337457574224 9 -1 -2
845 1 20.072542710185342 17.541456262827847 4.214375249470412 2 -2 5
916 1 22.61276589138301 18.12356361927962 3.63294888331474 -5 6 1
185 1 20.14845277451257 18.32337814695366 1.7347465020767658 -1 2 4
214 1 28.117409205400165 17.26351141216969 3.3168091645196403 2 4 -3
127 1 25.39263351301468 15.515182341164506 2.192153560057318 -4 3 0
421 1 24.068455887743603 17.5046020466176 1.2449998148522472 3 -1 -5
759 1 25.63071941659694 17.319821124040768 4.365866709900464 -3 0 2
869 1 27.73784974406023 15.914359632058495 0.8309643577575792 -1 -3 0
901 1 2.412058281830837 19.497294203844266 1.9881649371697732 2 6 -5
802 1 0.5183023557945515 21.240510830403768 2.782635416638962 4 -6 3
599 1 4.419986861508178 21.050637902677238 1.4249215494330747 6 1 1
16 1 4.180292634486441 20.795304444997857 4.392749497179349 -5 -6 -5
462 1 2.840586320858767 23.27961877001193 4.037342137936693 -7 -6 4
435 1 9.370686923644794 19.646650489144687 3.841504882734529 2 5 2
53 1 6.627222766053044 19.352143252015445 2.0362348842419173 4 -2 12
83 1 8.815626853853022 20.81057110482706 1.465346123459106 -2 0 8
721 1 6.881054681056677 22.03879402701463 4.019266991929465 -4 -1 -2
196 1 11.47983666695975 20.497554466906077 2.350465636872064 4 -5 1
760 1 12.63058450669348 22.978257376516282 3.0706751149668783 0 6 -3
931 1 10.455419123302883 23.53784291689264 1.1539147533739444 0 2 5
484 1 9.919981038715203 22.665836050715882 3.9599079726516777 3 2 5
756 1 13.478595954323598 22.1091699461666 0.6989995499380138 0 1 -2
940 1 15.024263177824443 20.210995146607548 2.2303080465486493 -1 -6 11
693 1 18.588090847022073 20.853408434933492 4.704590849964624 -4 3 -5
255 1 17.632275002057302 19.132188361850503 3.255490561657868 -2 12 0
455 1 17.738733048691618 19.03247994326855 0.45651356042899477 0 12 4
206 1 15.46965696788558 21.809862000133737 4.554519825964976 -2 3 -2
996 1 17.51545108891839 21.739975592045383 2.180086038462416 1 1 9
307 1 19.467558222550146 23.497884666319408 2.3355307316459535 -1 -1 6
291 1 20.774303758634716 20.43381401689902 2.9196011625340756 3 -4 -10
663 1 22.361323735566106 19.570670626057854 0.00064091569565815 1 11 -5
125 1 19.56911086755847 21.62127095835213 0.5197148338973158 4 -4 7
744 1 21.89086439225482 22.558897039260135 1.6659971764453105 -3 2 6
648 1 23.510799167570994 23.470780449793253 4.05782575234854 1 3 2
895 1 24.399170235637207 20.715217371728226 2.374768389165181 -3 5 -2
210 1 26.360356625801032 22.37609404385198 1.9524288474024043 1 -3 3
839 1 26.824224585291063 19.030716568776715 1.9510113667924764 8 3 -6
581 1 26.20176922264287 22.82940139417856 4.703006604326744 -5 -2 -2
701 1 24.111678666941494 23.411460223649858 0.4372042981393655 5 -1 -5
866 1 3.9914814542669528 28.28157548675118 3.10715147043405 5 -1 1
346 1 1.5831945569532806 23.71880263718754 0.867333623039664 1 2 0
670 1 1.149065617800307 28.30311150152129 0.9577320238721089 -4 0 -8
776 1 3.2356411173298136 26.58792111739247 0.817147907745836 5 -1 -3
577 1 2.184513711280459 26.1455286909382 3.084040288294942 -2 3 -2
911 1 4.812251784380196 24.434143583367653 1.2894412905944093 5 -2 1
100 1 5.433418341264226 24.76435244146017 4.4447131150530685 2 3 3
391 1 6.268717603820839 27.46834933687816 1.3683882894565378 3 0 0
525 1 8.052731883028766 25.80341904525326 0.08269278307318118 4 -5 3
972 1 8.144039814569688 24.736923506041137 2.7900357544845957 6 -9 1
464 1 7.995701155229128 27.354368292077417 3.944401841641579 -6 -6 3
920 1 10.16890515531309 26.79915239827647 1.5287065965121829 0 6 -6
128 1 13.054045452522733 25.072620139701943 1.0983554142568785 -4 -6 -2
627 1 13.066828240652292 28.142054268058118 3.5179411199504167 -3 -5 -3
827 1 12.559168742126522 28.093798518992248 0.571463257024881 2 3 8
856 1 10.832845960006306 25.444132779488555 3.699767229572838 4 1 -6
781 1 17.213956439085553 24.15189118290888 4.139191519696474 -3 1 3
842 1 15.842591365200743 24.01591160009744 1.761484121059888 2 -7 2
75 1 15.23259745210625 27.52327326268195 2.1329852915333456 2 -2 3
452 1 18.043165718501946 25.932618332262432 2.0521075989847843 0 -3 5
402 1 14.442140873469356 25.05465727442738 4.038696620735376 1 0 2
308 1 16.664879874327692 26.73484613571388 4.502274795157284 1 0 4
688 1 21.60389573038212 25.64688655365927 2.7525801178711937 -2 -3 6
935 1 20.691487320926495 27.667992353724003 1.4333491995138137 -8 4 -1
942 1 24.09997048040513 27.676974211394572 3.895110757925314 -1 -5 7
37 1 28.05883508669476 27.203911434877444 3.3943536339231284 -10 1 3
400 1 28.301055509387417 26.276629179914156 0.4698817744485512 -2 -6 -5
522 1 28.121695816410874 24.519341072692658 3.4109340730361293 -4 0 2
769 1 25.23914740844889 25.735585720375777 2.083368634722023 0 -3 0
181 1 1.4755923873519556 2.8138025196139234 6.615323063788647 0 -1 -3
576 1 2.025356757307721 3.030717525433433 9.20879656219619 9 4 -6
912 1 3.189812169682727 0.5766349044759045 6.117151014447931 -2 -6 3
126 1 4.506396395327114 2.9568269491458943 7.041628272071773 5 3 -3
734 1 4.638101450932258 0.6587156252799204 9.2071929934688 5 0 -1
707 1 7.149043986711246 4.4411350134630245 4.780284616557721 8 -2 -10
508 1 9.302489997622446 3.2257394451981 6.436886099777551 -2 -2 6
918 1 6.404773668867405 4.63434177984778 8.341660492165989 -1 0 -4
450 1 6.65843919596615 1.4342423136927074 7.091372980472598 4 -3 5
970 1 12.1220499443933 0.9015030337763164 6.043164677025609 3 1 -1
228 1 9.609658852609163 0.592818182372011 7.680287790208606 1 -6 -2
408 1 11.507334177228932 3.4333348311272567 7.408402431776735 -2 -1 -6
782 1 13.837158484939009 1.2314024615286516 8.79647477329453 3 5 1
799 1 14.637688999482652 3.0290353068811857 5.9950770755365115 -3 12 8
652 1 17.385806438573386 1.1777604035751146 7.914752321286113 5 2 -1
250 1 17.481724785704404 3.9402456316924286 6.248025386514364 -4 -4 -1
889 1 18.824609053826503 2.8030774608630535 9.297199575241583 -5 -2 -4
358 1 20.327591310292107 0.6831724252731443 7.287075967622537 1 -1 0
281 1 19.252464173255643 2.2313743758897573 4.936036929643562 -4 4 0
989 1 20.93188001844709 3.4365695349721963 7.359685254998479 0 -3 -5
987 1 23.558985069335243 2.344822871573053 8.16361420990691 2 -1 4
169 1 24.060537602070504 2.01644634731726 4.953348101444196 1 -1 4
896 1 26.872284554773508 1.5108273305435687 8.103034362852028 3 2 -5
551 1 25.85989658469836 4.491232357929344 5.801492105964967 -1 -2 -11
11 1 26.9266638942083 1.188247301207415 4.970541278976099 1 5 2
763 1 25.562551342399104 4.150371879263966 9.200742685942545 -2 -3 0
968 1 2.513326724430062 8.28479702582498 5.605553154274404 2 -7 2
179 1 0.033360765724012253 6.619777328721803 5.103015639602636 5 2 -1
947 1 2.4537743414572617 5.548171045501836 4.849294320611623 2 3 6
957 1 1.4723832432205106 8.029350514904248 8.523946245400376 -5 -5 1
724 1 2.3628272494005045 5.286655209280859 7.544711781805567 5 -6 3
667 1 4.628287647456343 7.658622176756629 7.9030746928725515 5 -6 5
357 1 5.202985181611555 6.137979636658888 5.343613605975206 1 1 2
58 1 5.14573027130117 8.989518806411967 4.985741222383078 0 0 -1
816 1 8.14384237967384 6.286768685510421 6.995448137715291 2 7 -6
589 1 7.253469511320224 8.34830729282855 6.583683318518438 0 -3 5
43 1 12.765391215638397 5.432271485950129 4.877912004739658 1 -2 1
446 1 10.83101701268206 7.173079330664156 7.601036248306831 -8 -1 8
612 1 9.68779413542907 9.455671997647089 5.591105733254884 0 6 -2
855 1 13.283728403000733 8.919879908928692 5.4182863159150765 0 10 2
67 1 9.892506225900817 5.001626280767926 8.78043354475138 10 -9 2
596 1 13.650151254401273 6.525013029865185 7.506067276456631 3 3 -2
240 1 15.787089839395353 6.587159986063072 6.347810333838531 0 7 4
397 1 15.11825284442834 8.905148603919816 7.87731576046687 -8 -2 -10
735 1 18.597295754636466 8.470067167478026 6.006385836644133 4 -2 -3
703 1 17.79440438972958 5.349600802376837 9.025360127309629 7 -5 -10
267 1 17.70826523268526 8.468110185823456 8.831275057111416 -2 4 3
252 1 19.41507468812421 5.235024833989979 5.045843915642051 -3 1 -2
620 1 22.556454604129843 8.922564761353598 5.574715181286027 -4 -1 9
102 1 20.812150437335095 7.465192783212496 6.791741533803187 -4 2 2
155 1 22.564292218274794 5.789351717517817 4.814163709677985 -3 -5 -6
631 1 22.844375482433573 5.867783149575623 7.330170371262831 -3 3 -10
818 1 23.368952110677462 8.561759925080281 9.252079727782696 4 -3 -2
66 1 25.185984376714753 7.313462661399029 6.075151351507045 4 6 2
345 1 28.04575627554607 8.800926186666914 6.935693922623747 -9 -2 5
497 1 27.561773963874682 5.531613580606121 7.7044599929861715 -7 7 0
366 1 26.05919928971359 7.294317430286533 9.167439024436856 -1 -1 -5
70 1 3.5671683242732244 11.721658972584033 5.564474682907141 -2 1 1
49 1 3.413864926759675 13.418673877003561 8.688086543322072 -1 9 1
537 1 2.64773351250032 10.597450743578113 8.122784924654379 1 0 -8
748 1 2.9349498573750807 14.029553620952449 5.758189642719032 2 -5 12
792 1 0.27796917777759733 10.841926869020163 5.601661471757454 5 -3 -9
828 1 0.5603160120994827 13.420382070917405 7.154516403422689 7 -6 10
109 1 9.118960826320908 9.69114717052613 8.744508318835758 7 7 7
211 1 5.6659748353159385 10.10222221893175 9.379772902339372 -5 1 -6
681 1 6.11422952272403 13.13297577054211 5.831833361134424 -3 -1 -2
924 1 7.184995364290306 12.438600543406778 9.329895062163544 4 -3 -9
794 1 8.673879583960572 11.909106658122473 6.931156227864532 -3 -1 2
313 1 11.352139155248556 11.55203279104289 6.069490444595105 -6 -1 7
868 1 12.691673666427544 13.170290211702067 7.74860710356436 9 1 0
542 1 12.125865263578808 9.919550573335274 8.369409920011122 0 3 -4
861 1 16.09540190118737 9.557385199994105 4.882377111772259 -1 -4 -5
609 1 17.871215217642273 12.198376050271992 5.015185999498352 -1 -3 1
23 1 16.93511206019516 10.759853557819318 7.429239202252217 -9 -4 1
325 1 14.42852261948244 11.499551090457597 6.147674218142662 -1 1 -2
538 1 15.41090869745801 12.557783362280519 8.638840916163259 -8 4 -9
832 1 18.550452337132658 14.133628030495963 8.249126641139988 -2 -2 7
526 1 20.313991699289264 10.33464619858221 4.821249195022348 -8 3 2
129 1 19.197388042054612 11.311388808216691 7.785924350037011 -3 -5 -7
671 1 23.033125985148825 11.650114333677616 6.854002470591463 0 6 -1
905 1 20.94110813628179 9.620828931027969 8.499318387850685 0 -3 -4
395 1 20.98272469067076 13.106697955865508 6.139493887829025 0 -2 -1
131 1 26.26557168654737 12.311366911824207 5.999225983384168 10 5 4
114 1 25.462532458644365 9.702935401844536 7.381539779214329 1 0 -5
629 1 24.65732418816236 11.554408158073212 9.457580305939327 -3 2 -3
634 1 28.086840510855577 10.776548726317182 8.629417931590408 -5 0 6
615 1 26.752705991234777 13.194030500864246 8.959217418445952 -3 4 8
874 1 0.9147237057736809 16.071478243295456 7.123356199642358 2 -2 -1
921 1 1.9379362622281044 18.408162872193824 5.737977125540836 -7 1 -3
635 1 4.206539813465642 16.093505003688115 6.62388333171979 -10 -8 -3
755 1 6.908734936895952 16.23921813670869 6.625902773310996 2 4 0
375 1 9.223095180594399 18.82002410762324 8.153754304707922 6 -3 -7
399 1 7.201696111886128 18.789210792014604 5.816536961622539 -2 0 -3
353 1 8.294327161844562 15.482209467490271 8.999875794758164 1 -9 -3
434 1 5.545231031003616 15.456722891611168 9.459163341185517 2 6 -5
975 1 6.201575089737323 18.128926914269506 8.658577881782215 -5 0 -2
789 1 10.137361840491726 17.028850140524224 6.522170022602898 4 5 -2
543 1 9.802786548091017 14.359514674288096 6.087903350718033 -3 1 7
226 1 13.433790105450608 14.693672225309225 5.143483276705897 -5 2 -1
539 1 11.47206927057585 15.66582556064178 9.089191494430102 3 -3 4
218 1 12.938443744731705 17.168619902800128 6.794584143001032 1 -1 1
180 1 15.950992790387104 14.297941732847988 6.501176050407426 4 2 3
153 1 18.795592759652067 14.966277059880014 5.455132807956031 1 4 -1
374 1 16.656535566439057 17.282656862141945 6.2023158611526465 4 -4 -8
485 1 14.87286428929874 15.57812431021269 8.492151171512985 0 0 14
995 1 17.356897593482515 16.28373966913333 8.814704949599573 2 2 0
379 1 18.60061373726982 18.116647981287432 9.434006317147125 1 -1 -2
825 1 22.2922238881785 16.029583267833463 5.95599815385598 4 1 -3
715 1 21.483484498880436 15.372436956699081 8.576170591593975 2 1 -5
480 1 20.011303676653586 17.137303902871796 7.2531474575477 4 0 3
879 1 21.768905243644383 18.828567997044384 9.44074604871786 7 1 11
81 1 26.99046087345541 17.535861945833673 6.5522934222340306 -4 3 0
320 1 24.351659110819796 18.06417993787017 7.942965707425713 0 0 4
674 1 24.702957322826478 14.956421148226346 7.260179348919799 -5 -4 0
110 1 26.992419257097442 15.03488635899681 5.647987223775613 -2 -7 0
998 1 26.590318090905033 15.795284593968997 8.870247338114483 0 -4 -3
557 1 27.198646149408233 18.377006555154722 9.465097363815348 -1 -3 -5
305 1 1.2710403820756568 18.983462153218785 8.675856594317507 -7 -1 0
472 1 3.9509776023533503 18.974900878947842 7.609497400124699 2 2 1
466 1 1.4690250482964722 21.475357251348946 5.970234100920979 -1 4 0
758 1 2.3258789387694647 21.673307073029243 8.547327100902152 5 -7 4
124 1 8.480750518148511 21.625761511899157 6.944401378286655 -11 -1 -1
112 1 5.187676694901838 21.84572444503124 6.7150831300106715 2 -4 0
431 1 6.678112721234256 23.395536101829062 8.313511454812735 3 -2 2
241 1 13.498124858551215 22.35386928124122 6.601509298131048 -8 -2 -1
821 1 11.038994469934284 20.1600357260353 6.06337408267591 2 9 3
174 1 10.695519742315813 21.169700929314715 8.95283377937898 4 1 -5
175 1 13.483261255970326 19.867874885198106 8.269106838341163 0 3 3
785 1 18.80195199493771 19.40148587222405 6.711210727470227 -5 -5 -5
80 1 15.531138892528656 21.695306927111822 8.143788495004799 4 -2 -5
726 1 15.701004174191874 19.571854811639188 6.256400785793372 5 -2 -2
137 1 17.685082973896936 22.827266775779997 7.052463366295749 4 -5 -1
135 1 17.370924977287448 20.31051791579626 9.086669618386036 6 -10 1
872 1 18.48790444850731 23.35813483258035 9.20504505343211 -1 -1 4
823 1 21.48321999713853 19.41599633802003 6.4384021458104135 -4 -9 0
553 1 20.085187628808757 20.823761666396443 8.931792464305811 -1 5 -3
303 1 20.723827769754195 23.395609821967494 5.374362126590834 -3 1 -2
793 1 23.1795286780831 22.24861028355589 6.315874339369792 -1 1 1
712 1 21.877205240311646 23.222866408354648 8.351153523162726 -4 -1 -3
189 1 27.416126936118495 20.05079307610503 4.94505912898375 -1 -2 3
118 1 24.281046619604123 19.65725971395969 4.935498605477184 -2 -6 -2
647 1 26.538064675032025 20.87731836009937 7.837652343187656 5 -4 -2
221 1 24.18254962507768 21.295304693550406 9.388629425762169 -2 0 1
469 1 28.307102718134214 23.11608067698803 8.716295024813318 4 -5 1
198 1 2.1691779583631345 28.26052863581354 8.609914869607524 3 -2 -2
373 1 0.06282126424621207 27.210974722935113 6.13897614594911 -2 -8 1
31 1 2.1641204929780993 25.930749604166177 5.85135150016273 0 2 3
736 1 3.6793343454438037 24.09863827510969 7.740905030376322 5 -7 11
528 1 1.8272433472856306 25.695420896265034 9.3514527045209 0 -3 -1
388 1 5.198726758457266 27.296444527640066 7.142155069994476 3 -1 -2
588 1 7.649822430766449 24.384547749010054 6.042269712989745 3 6 4
412 1 7.2368324799232955 28.00024127426391 9.279351732817485 0 -1 -1
453 1 8.496678529656721 26.627894179479412 7.152757076704704 5 -1 -1
133 1 10.60660240024579 24.50423459097424 7.646371994669821 -14 2 -7
682 1 10.613380991269521 26.875901700572005 5.631245528069212 3 3 -3
917 1 13.251461943922502 26.401745416453256 6.424566207559704 -2 -7 1
287 1 12.838062680103672 23.96536971693443 9.074640440267933 3 -6 -4
718 1 11.544490387590269 27.493920755279625 8.436412622960148 1 5 -1
482 1 17.880817117732978 26.799154817737953 8.582982237026938 -5 -5 8
547 1 15.579846578270221 27.891045031501882 6.464704550320305 3 -6 -1
48 1 16.237530968534305 25.09516770135416 6.687529137591178 -5 -9 -3
597 1 18.571678861203402 27.495845361966417 5.891918740225138 5 3 7
151 1 14.884702811285603 27.014572535014715 9.313529299031975 0 -5 -2
887 1 20.550735030846567 26.114280135019442 5.010521668044661 3 0 1
144 1 22.86625890943864 28.312526246449224 7.134146623851094 11 -2 3
684 1 23.293082263979542 25.708837169078816 9.124428315321714 -1 -2 5
519 1 23.047745619111865 25.58220625227535 6.315761727281243 -3 3 -4
801 1 20.95831042818124 26.9168802293459 9.129542180582854 8 -7 0
865 1 19.32903543366438 25.078765326933137 7.145989057000831 -2 6 3
590 1 25.240148145319484 27.12778011612734 7.1496102909353345 4 -1 3
309 1 28.421649336376113 24.410944424169223 6.186528370980337 -3 -4 5
491 1 25.72550545417221 25.67176618768113 5.000234166887841 1 -2 -7
123 1 27.513994196863568 26.22213653629162 8.914455071897196 -2 -7 -4
341 1 25.625037963002896 24.0413578189533 7.281261043868467 -4 -6 3
723 1 3.4657904085664657 1.5814535241228294 11.330675444104102 -2 0 -3
245 1 0.0255543224816428 2.711112165579959 10.914498687824842 -2 6 5
578 1 2.5477451340330175 3.7259421063472247 12.771014168439454 3 -5 -1
815 1 4.713393353393323 1.091592203657488 13.755331663123595 -3 12 -2
873 1 0.24344393802969858 0.08004712505196042 10.386684478080777 4 3 -6
651 1 5.628457616435774 3.0977693534129664 11.277519234154319 -3 -1 -2
625 1 8.25535155252456 2.0122543097795966 9.533275744912544 2 2 -1
656 1 7.165120825466855 2.7442467811663764 13.284443391352614 -2 -9 -3
960 1 10.897004942443425 1.5138024424760488 13.421799208953852 2 0 -4
348 1 11.354243388128848 2.2206841002218343 10.013931086219753 6 0 1
971 1 10.911356685680484 4.702182101382099 12.872166044655193 -7 2 7
811 1 12.690758553622494 0.19837139250970737 11.476363966315011 10 0 6
249 1 13.594599178829068 2.764811748250084 12.138956869252532 -4 -10 1
933 1 15.955646293561662 1.052415546512159 11.202163434361756 -7 -2 0
849 1 18.66619798634184 0.3757724267499311 10.190907432687625 -5 3 1
675 1 17.153638470820198 4.260399932091923 11.571203289596385 0 0 1
213 1 15.426799904482097 3.6124032920375897 9.507513918826996 2 1 0
556 1 18.171293558759135 0.30974340420566876 12.951249839507488 -1 1 3
339 1 23.516836391772333 3.9254968098937977 13.868328580222558 0 -6 -3
510 1 21.583610058653857 1.477648253043041 9.870687146274488 7 -9 0
886 1 19.028355649229585 2.4167319309369906 11.790426437515256 1 -2 -1
619 1 21.785335143841564 2.29350196268669 12.546626727280115 -2 1 -9
360 1 20.948252859566058 4.696065971724692 9.771490508648473 -4 1 0
229 1 27.996251981150767 1.1383948864112623 12.868615933563852 -1 -1 6
54 1 23.734218682014156 0.27623630900452056 12.359531141181051 2 -2 10
332 1 24.984840801286765 2.941914346661883 11.809816313737276 -9 8 11
878 1 28.383636995787846 4.535362739801166 13.771307014016328 -6 0 1
777 1 4.132437770586936 4.885083768950993 10.318440441090251 0 4 8
870 1 1.0974531526180173 5.638497855421681 10.449750982488755 2 3 2
139 1 4.676759717868158 8.218639442433119 10.932371490747736 -6 -8 5
209 1 2.2772933046367543 6.453829813315702 13.027071558034663 8 -3 -1
263 1 0.43302907243487315 8.02561158563202 11.536968846572561 4 3 6
258 1 3.9549474719843327 9.168406894181539 13.241905329508663 7 4 -5
585 1 8.08410942975757 5.1280419812167395 11.174708806342833 5 3 -3
639 1 7.65980370789311 7.374009990738346 9.86110619771711 2 1 -2
780 1 6.829035113495612 7.967954421524956 13.396376923963805 -3 4 1
69 1 9.04123041133005 6.3804915999561445 14.02720285202298 3 -1 9
9 1 4.915080143847177 5.8115177800419895 12.979868838954324 -6 -1 4
404 1 12.771885170322365 5.1323231744037825 10.1558974787212 1 6 2
922 1 10.778249733845312 6.622469780408275 10.86508316393883 12 -2 -5
489 1 10.36350918322696 9.19997160391352 11.206416073160913 -3 4 2
955 1 13.159505874777642 8.585682251846448 10.663513777725218 1 4 3
838 1 11.674877393268188 7.844518839445885 13.64209178694361 -3 0 -1
324 1 15.248939537245185 6.573001767614049 10.330399339384554 3 -7 -7
363 1 14.348122112341441 5.281766388933307 12.721882976373132 -2 10 0
513 1 17.071920015222126 7.350160863205279 12.292958334949775 -7 -2 -1
178 1 18.239472507175037 5.069320633895777 14.169776420997133 -1 2 -1
505 1 14.677988242544066 8.987239769878368 13.409861506746257 -2 0 -1
678 1 23.504421749938537 5.080209375337467 10.974490716026148 5 2 -3
481 1 19.1762668348943 6.744183879885208 10.923991566414422 0 2 -4
567 1 21.62386261119041 7.367749118100055 11.101541141308427 1 5 3
665 1 21.08639191901205 4.834775099694293 13.195653578021371 -4 -4 -4
990 1 19.949049560779734 7.743210599160136 13.23071163672736 1 0 -2
714 1 23.854348159807888 7.250302394782881 12.980311047771655 -1 -2 -2
502 1 26.5141979498544 5.725722300943388 11.677436691873574 4 0 -10
20 1 25.61929661073931 8.975698809141342 11.70492161803448 10 -1 -2
713 1 3.1018358791295184 10.694899446899555 10.687694813818846 7 0 12
278 1 2.4735089744975163 11.934966283118522 13.640449856755433 -7 -2 8
908 1 1.041182706046523 12.786943033873591 10.318774004889207 8 -9 -1
401 1 0.0864621761486122 10.639991985359782 11.702950543937295 3 3 -4
743 1 5.373268904597385 13.091729164393325 11.021041770687985 3 -2 -1
788 1 5.998019324665208 10.991806773728298 12.401648461687696 -11 -4 -1
361 1 8.642511305437013 10.858827711768216 11.234327953736141 -3 7 7
640 1 4.892433595122845 13.773113337843876 13.85018521531538 2 6 5
471 1 10.72497787103115 12.553764252639946 9.785351288254526 -12 -3 7
685 1 10.103686109753003 12.809554640069853 12.709138598200646 7 0 -1
697 1 13.094584550988348 12.811529273170624 10.204000875933371 1 1 -4
512 1 12.34982073774041 10.797689292066076 13.19806824686919 -1 -3 -5
549 1 13.199559673230254 13.976787238453268 12.784760562865213 1 5 -4
62 1 15.912479144007492 9.513354727162106 10.421619203462274 4 3 1
407 1 15.143279684053555 11.783795527365937 12.176405929929347 4 3 -3
602 1 17.508109149566177 10.594333117248395 13.351635392577633 -5 3 5
113 1 17.766783024415084 12.469786014633693 10.375788685633093 3 -1 -2
974 1 18.180871872197805 13.574146910477277 13.064284868130265 5 6 -10
162 1 18.97945383479826 9.96984852325455 10.857766435380787 3 -5 7
273 1 20.955277781607624 12.586875490232957 9.777756389648106 1 -3 1
142 1 22.068130286078063 9.950195034100094 11.281047994775856 -5 0 2
698 1 20.216896214076918 11.84625425919546 13.194525281785051 -9 5 3
130 1 22.769149447502556 10.118612863182282 13.95207553717854 1 2 -5
38 1 22.286267831389015 13.273027735137385 12.628647312135936 -3 -4 1
492 1 26.698397553724742 13.45825227073451 11.666996419237705 -5 -3 -2
146 1 23.884328691460393 11.33937417828633 12.205921869255262 -6 2 0
73 1 23.936301919928646 14.035752247755179 10.934392458495646 -3 -1 0
367 1 3.6274530302364156 18.044989810580166 10.518619131421842 -2 -3 -1
119 1 2.873805096672939 14.360737694296532 11.429200370582574 -1 -1 0