LAMMPS data file via write_data, version 2 Aug 2023, timestep = 139320000, units = metal

4004 atoms
4 atom types

0 49.42095145851651 xlo xhi
0 49.42095145851651 ylo yhi
0 49.42095145851651 zlo zhi

Masses

1 6.94
2 22.98976928
3 14.0067
4 1.00784

Atoms # atomic

1707 1 3.3244203351559354 1.19358716947438 4.875783828591345 0 7 -3
218 1 0.9481867034587187 2.782495787600955 3.491924239985606 11 10 -7
3264 1 0.11277498880550522 3.628290578476017 1.1320037069107332 -7 5 -11
2819 1 3.5365875073010464 3.274038897611961 0.5418064363666251 -5 -11 -1
88 1 5.060971877001944 3.2584272178230127 3.2469100954967693 -7 3 4
3058 1 7.20961088499493 3.8327446142536754 4.8538527647119425 -3 2 2
1032 1 5.954685933697925 0.0018675692383050557 2.1157355787133065 -1 7 3
3674 1 8.266315970891918 2.3011490497652534 2.420847439826542 3 -22 -4
713 1 7.876733618030877 4.58346262316184 0.8758808958566028 -8 5 10
3579 1 8.696237606486841 0.024959535743349193 1.087784127231672 -7 5 -7
912 2 11.029004612995124 3.1639461074271362 1.413130837957515 -11 11 7
3614 1 13.668636976417748 1.7988744562510444 2.72811675607283 1 14 4
3059 1 11.430901490501252 0.6481903916901139 4.542446159895792 2 7 13
1984 2 12.718866574971917 4.666248826495243 3.977815526346879 -9 0 7
2860 2 18.158556104522148 0.21239362408613557 4.498096125412722 -7 -7 1
1857 2 17.416384596956558 2.781569497831206 2.026918923669257 -4 8 -7
3464 2 23.99518784887737 0.5026977699494994 1.7921379641965738 11 -14 -14
476 2 20.742131662625262 3.696003031757437 3.3809061406702474 -2 3 -11
1615 1 23.30250634975962 4.062126292781505 1.6946801613953444 1 3 -13
1322 2 19.96836483807128 0.726933561283126 1.968810464159653 11 -4 4
351 2 26.972123628873724 1.172937467574261 4.090904176542718 -10 0 -5
2865 2 27.205732984802836 4.260306119482643 1.7106130044780177 -2 20 -1
2909 2 25.073986786595565 4.866053694761428 4.529676574747987 4 -7 11
1954 2 31.62612265225243 4.064675024241676 2.4999249377749786 -13 1 -11
1865 2 29.807816069538163 1.5056656120306247 1.77445738650703 1 -5 -9
688 1 32.087634622501234 0.7717668909820006 4.074977050771705 4 -21 -7
1759 1 38.13393215110042 2.947487853414821 2.0560199601700107 2 1 1
1463 2 34.61878169538892 2.1635488825008546 2.401270847354069 2 -6 1
2901 2 36.8259387099902 0.47068585158266035 4.204767137975824 -8 -7 8
184 1 36.74282948990812 3.9080200437821877 4.461195266317058 6 13 -9
3119 1 36.06377014273499 3.0462932687668016 0.1240384562882077 7 11 -12
420 2 40.894608702526924 1.3197755734855388 0.8838374841928224 6 4 0
95 1 44.40184314630767 2.4092139325480244 1.5011664479482656 -7 -5 18
930 2 42.685168093744274 4.516065515782871 0.20861183336094374 -10 2 0
1277 1 39.72489501523987 1.4363271385880365 4.35723850578124 -4 6 0
3436 2 42.41417531822049 3.6130292779132747 4.34659887196505 5 -2 -13
3163 1 47.36310981704506 1.447390897239349 0.6985397865248683 -10 -17 -9
83 1 46.4586786928687 4.684453583796411 0.9647102492073892 -4 -7 14
3260 1 47.16815530151641 2.1911802815536587 3.462373966227851 1 2 0
1697 1 3.318988531932532 5.322516807873117 3.255559573332832 -10 -2 2
524 1 4.929438199797965 5.530667793547464 1.1371631967760942 -6 14 -4
695 1 4.623469590670279 8.186398945987847 2.257070078283372 -18 15 0
2673 1 2.0466798813402582 7.098355411579844 1.1650747760718747 11 1 -7
515 1 0.6094477537392928 5.704839296198716 2.945863041159509 8 10 -20
69 1 6.5238526876362055 6.599053883862426 3.536655283672484 11 -5 15
716 1 8.6419445468782 9.265187386434686 2.7442888442619733 0 2 -6
2944 2 9.323428708349464 6.597616567651969 1.7989343707972 -4 -7 -6
2674 1 11.808579989510768 7.643690344248426 0.16838723914112622 7 -1 15
1845 2 11.609581330425256 8.618822180524763 3.388117040818135 -5 11 5
2384 2 14.190685543280058 5.377208583429301 1.4157181011461715 9 -12 -5
3633 1 13.623794701605707 9.327188338783422 0.7627828160641408 1 1 -12
2628 1 16.775700382101103 5.831113352420272 3.969168636492163 -9 6 -4
2675 1 15.573168325338195 7.999758690369364 2.250233230197223 0 1 1
3602 1 18.31328869664417 8.327340193186782 2.441629424186205 -6 3 -5
3296 1 19.46881953025368 5.99493031215671 2.7997113713991246 4 14 8
3754 1 17.26268078216471 9.8422448470323 4.769939431663289 8 0 -2
645 1 16.651815423501965 6.574659561717631 0.4576574676584913 2 -6 -1
806 1 22.034086272433093 7.342326149334017 3.718789735305376 -1 -8 -8
2810 1 24.395721218766262 9.793191916072365 0.07960510044772269 -3 -1 -9
3237 1 21.41686307619572 8.620254081518745 1.4066676881440223 8 12 -8
432 2 20.898003464440727 5.069520261293227 0.1690279806796813 -1 4 -4
94 1 25.089554261438725 7.39498644573608 2.767997169972748 -2 -12 -2
1097 1 27.68907599664585 7.464791781784347 3.2672507548767245 0 -2 -5
102 1 27.159339912458975 8.139581201956577 0.47165466739510226 -1 -11 -7
78 1 26.35597585710899 9.695722479169163 3.0533610396928315 3 16 9
568 1 29.62556850385703 6.064914747539619 0.48592127574143296 -11 -3 5
3183 1 34.09337867093774 5.886357076249064 3.1844516079983762 -1 8 -6
89 1 31.142802015472277 7.013777385084968 3.597636147895519 13 -2 2
2314 1 32.215920299091444 9.744406118696412 4.756313792131671 6 -20 -4
2905 2 32.28860980561867 8.555631772998202 0.7067562212650367 -2 -6 12
3177 1 34.71311463117393 9.191254536588847 3.081668159884696 9 13 0
3135 1 36.333420616541325 8.125054113424182 0.4679240584611951 -4 3 -4
3809 1 37.59792455164631 6.916175620223206 3.998586211452436 16 3 -13
3720 1 37.064963481943636 5.320266548691894 1.3638679827576243 -7 4 3
3975 2 38.934272345412005 8.414340619852311 1.6477954777899806 -1 -1 3
425 2 42.457666319096006 7.980779691781195 2.868900442687483 10 -1 -9
3367 2 39.68209254804945 5.099962650197525 2.843069245514456 -2 -1 -1
72 1 46.21722314747134 6.6114804913336735 3.3718766638475834 9 6 13
3465 2 49.04652700323991 9.840109222467959 2.0246080205029706 -7 1 13
1991 2 49.396679429012224 7.405271667521424 4.742726958293611 -4 3 7
2330 2 47.97885873856268 7.4161694365741315 0.003152274482943085 -7 5 5
378 2 3.3316606661251216 12.861334359879985 1.12154022545165 5 -3 3
2011 1 0.6041127361448333 12.866277873194045 0.7931738838484728 -1 16 1
3353 2 2.702589397942698 11.238536897205165 3.9174018171282152 8 -4 3
2874 2 2.44839791571233 14.633533363916635 4.05612227570123 -11 -4 -4
1826 2 2.8812339572220234 9.964161676544817 0.16504566053714045 -2 7 12
3164 1 6.506721535252679 10.730560573578424 3.0809567983719264 9 -4 0
1535 1 8.316515147516991 12.25081388836702 1.4453015426410876 -1 -5 -11
1131 1 9.363978625528079 14.691143993751092 3.065244184401691 9 -2 5
779 1 8.2648691348926 12.425666966013221 4.685709345039783 3 -13 5
777 1 6.20210515171548 13.685497854828709 3.3415664769059616 -6 4 8
640 1 10.37710484741053 11.829547322037639 3.2823120394743355 -2 1 10
2692 1 13.421744185323817 11.399791471052742 2.862097088663211 7 -5 5
697 1 12.280855233768287 14.76600436487783 2.443743525151383 8 -4 9
3106 1 11.583534437386872 10.909194965164039 0.6895721406666758 -2 -6 10
2269 1 13.20745329484839 13.258623248566328 0.38995371728222644 3 -8 -7
209 1 15.851461855902478 10.995328243047098 1.9540773152969495 -7 -8 -7
2290 1 15.447932966707171 14.090395457976278 2.064804921655981 1 0 6
3035 1 18.44472722605307 12.046936297909483 3.7459560469849644 -3 -9 -7
3303 1 17.771913315820303 13.74909250702572 1.0430219597355335 8 2 -1
1038 1 20.244189687061777 9.937724819316532 4.314339824945859 -13 5 14
1912 2 22.890506737443868 10.520230324068075 3.657667283611338 4 -9 10
1104 1 24.449613076146218 12.604312193161169 1.965876179363599 -5 10 -6
1105 1 20.61685589463709 13.997928250275509 3.864056045374697 9 20 4
1175 1 20.941637447045718 11.811185226202904 1.3855600675467727 2 1 -4
1909 2 29.27286052236957 9.895704350353485 1.7559815595152546 1 -4 -2
3630 1 25.94302324079107 14.700443194459563 1.4657356558552266 -5 -11 4
3589 1 29.095435087302416 14.386005889586057 4.65768003837534 20 -6 -7
1009 1 27.15722824175629 12.303230298890872 1.9457001295450427 7 -4 2
3132 1 28.60014582235251 11.088344396899437 4.481058220646039 -13 -14 -7
262 1 29.591580662289424 14.06444371109584 1.3150453850741302 -3 -7 -8
3608 1 25.87759779547137 12.858303164980923 4.532978668382808 2 13 6
2468 2 31.36028423304434 12.07662311553894 3.1461933589521576 1 2 3
2904 2 34.40674488189293 11.86719398750344 1.6481942774261658 -9 1 -6
1012 1 37.47548166137712 11.540970030609074 1.4633528816798833 -3 -4 -2
2951 2 37.458854799339235 10.23901159974892 4.493531904849313 1 10 2
2052 1 36.35602692507418 13.257378079587536 4.678536276145791 6 2 8
2974 2 36.50555145644481 14.459144240535146 0.8356663313220357 4 -10 12
2535 1 41.196987432286015 10.663161021864584 0.41771168211605064 -2 0 0
1753 1 40.200881130891304 12.620543120029597 2.40875726271434 -6 1 -7
976 2 42.34126745062764 14.303958660814871 3.9763601260184567 2 6 -4
2029 1 42.389485204292114 10.896219903483507 3.509298499871717 -4 -1 -7
660 1 43.52901932453356 13.34564249338523 0.7884650387262592 -4 0 3
998 2 44.501176921389266 10.244558498913246 0.0681703361718371 -1 -10 6
2499 2 45.575820142097854 10.425226109523777 3.2934404102119648 7 4 3
1336 2 48.64939179820296 12.525530123505893 4.335233979562851 -11 5 7
376 2 47.15185554813936 12.617140374460295 1.2278501887198907 -3 9 10
3088 1 4.875152974443662 17.773077977260186 2.4562460509918647 -5 0 15
3920 2 1.3258958678697779 17.52022361074661 0.3647879093603988 9 1 9
3468 2 1.3762587563379716 17.488794573162384 4.052340715912075 -11 -16 0
3077 1 6.943683758856326 16.35321670564497 3.081106947869205 6 4 1
2315 1 9.808723495754718 15.130049047457836 0.15409119008913272 12 7 3
2710 1 8.751491071390276 18.169373517577437 4.375627182983545 -2 -7 -6
204 1 9.195766199644709 17.34550911001582 1.952906983149381 -4 19 2
1126 1 7.49905783466645 19.738373077734156 2.7175891797388454 7 -17 4
2304 1 10.825364189446141 16.227041367059474 4.900278115602732 4 6 0
2176 1 13.25269413616881 19.73752784268078 1.8938938631961835 -5 6 1
2742 1 12.021873614360217 17.686600807327487 3.3003487962855735 -4 11 -2
3790 1 15.734464977124318 16.832111474976887 2.751700919740786 4 -11 -4
129 1 17.292610050141082 18.52985179744513 0.9469734491339927 -10 -3 10
271 1 17.690026200584274 18.181253764535374 4.017652688230209 -4 5 -11
2800 1 19.61298126947402 16.18638859820485 2.273140481907081 14 1 -3
2318 1 17.723101005477066 15.176259055286183 4.062190226995446 0 1 -15
1107 1 22.21250483819786 15.093751008817202 0.8804276536881822 0 2 5
1180 1 23.119054482750105 15.227152328175798 3.469132736825997 7 -10 -7
3006 1 20.37502536148127 19.684031846407454 3.2963443614214682 -8 -11 2
1894 2 21.781705551349734 18.98698900872719 0.718046454148771 -6 10 0
2648 1 21.430766191289592 17.38465547394834 4.606027604633043 13 -12 15
2840 2 25.20272650400217 18.13120237036277 1.7105062038772345 1 -7 1
1305 1 27.80602326118622 16.548556142967183 3.032299849416594 5 19 -1
104 1 27.380774866977628 19.0219226923248 4.406622240486999 -6 -16 9
270 1 24.85945338732268 17.27086144536475 4.6589990994910915 6 6 2
1892 2 28.042603532931572 17.71340766914024 0.2156765929360933 7 7 -7
2762 1 30.182051402881665 17.59971415670256 4.4018153001339 7 -3 13
2419 2 31.769829568740555 15.328927228395418 3.4653636012708726 2 -11 15
3792 1 32.65581336147567 19.11264713898771 3.3637723417339536 -9 -4 -2
616 1 33.27029038779343 19.108354324866724 0.35099630541692506 -7 2 -4
746 1 30.604405198842276 18.450093476719896 1.5793861932291606 -9 9 0
33 1 33.20710603457381 15.884838183696148 0.8315245720063794 -3 -9 3
2900 2 39.034114339979155 15.308175148916451 3.0200266773911353 15 -3 7
2163 1 37.472228340501125 18.9170099079207 3.380452594282586 0 0 -14
1397 2 35.62218591493133 16.207303545575492 3.577708979746784 -9 0 12
2969 2 36.966154348079016 18.00513173251614 0.2407947811746268 -2 -11 -3
3884 2 40.91274661428882 18.837795228263268 1.91921856470165 9 -3 10
1054 1 43.100886450187204 17.500243390054703 3.9686118927140868 8 1 -8
2086 1 49.37251652416867 15.115133827659337 1.916240073785508 3 10 -3
3242 1 45.93887507782181 15.495644407349628 3.3153477821098125 -2 15 -21
2306 1 48.14096469068744 17.51006383155762 2.4855304486043694 -12 6 4
1678 1 46.73000813202631 18.53169299796325 4.837709262788661 -8 -8 12
2702 1 45.6790983496806 18.17839720086566 2.187316898205456 6 -13 19
1486 2 2.9308413636890167 20.227930442350846 1.6473937119938449 4 9 -3
921 2 0.5205854793354526 23.93400907380591 2.6834446017146107 -4 9 8
166 1 4.312593670111868 22.49708145652741 3.2209158228494363 -4 -9 0
1915 2 4.736839615004802 23.831281904780756 0.2185877175744549 11 8 -2
2158 1 9.39968282204335 19.803848037617445 0.89406763447501 4 7 8
1061 1 7.209256912648423 22.88737368613545 1.6526813151046806 4 -4 -2
1093 1 8.056972726434052 22.235941054477927 3.9662253752400316 6 -1 -2
1853 2 5.864755822040334 24.492909053687494 3.985926529715981 -5 -5 -6
1034 1 6.475831937717297 20.16371305140998 0.20593530457159848 -18 -6 -11
730 1 10.8396906386301 20.386161352348314 2.8628501762951752 12 -10 -5
1517 1 10.451150920662053 22.662627954890166 1.7934329587969 3 -6 1
504 1 13.146140767915211 22.4663864255262 1.2800502800437754 4 -19 7
430 2 18.343699523743037 20.791882806916774 1.6699962551948127 13 -2 -6
632 1 15.9249809934799 20.297485205170105 3.3934151637426213 -12 8 1
343 2 18.74087793672913 23.63073182112723 2.7179075174253975 -19 0 14
841 2 15.213919460649183 24.038622369401537 3.5136992323089933 7 -6 5
519 1 22.002475255535956 22.050187115768733 2.0663174477127555 -8 12 6
1116 1 23.04433426357975 20.098977282458474 4.550416948928915 -2 -10 -7
3600 1 24.33152117583279 24.45701576496199 1.6598107936893893 0 4 -6
2415 2 23.650458915196655 24.11134129852004 4.883063284749681 11 -3 5
1257 1 20.748867247618996 24.229260719231355 0.11883819506791492 5 -2 -7
3374 2 25.649816273781905 21.191565546303668 2.3734050904469597 11 -6 4
647 1 28.63528393465652 20.797675950298135 1.3079927628287198 4 3 3
3560 1 27.275459603863034 24.26779706843476 2.540652458599184 7 -8 6
1847 2 29.637740129512494 20.79335191748561 4.021213511690652 -8 4 -1
644 1 27.276639309013582 23.61982561944648 0.0013782953624144056 -5 -5 17
776 1 34.53523296538139 22.798292217727717 0.7963512864817197 -15 -1 13
1276 1 32.22057267201889 21.148474772751147 1.8367258648617157 8 0 5
3102 1 30.46410103909299 23.540560519994308 1.6989710670952929 5 -15 0
126 1 32.24469848313556 22.752994097088866 4.542093793956739 -8 11 12
1585 1 38.26949793745891 21.190683285794776 1.6869464630653472 1 11 1
1838 2 34.863278968977575 21.90942952159988 3.8790066539214823 14 11 -1
1248 1 36.820435569275986 23.63789395462979 1.6559633558883664 -1 -5 9
162 1 35.59307392353541 20.36363569500614 1.815584364365993 -4 12 0
3053 1 37.693747356508396 23.891789163049417 4.299788316772843 10 6 -5
1667 1 39.64570372406686 21.23612563303137 4.182982770170589 -2 -6 -2
1788 1 41.126692994079605 23.300608311536507 1.8919590992466562 4 -6 -11
3964 2 42.47188178875693 20.701882112526707 3.9089668059263394 -9 2 14
414 2 44.34434446345201 22.119212595389264 1.0676475889801424 -4 13 8
2428 2 40.46850529916953 24.017201706555404 4.864546070793247 2 -4 -5
997 2 47.198703939103005 21.27864718566278 1.65566729961735 -1 1 -1
3844 2 49.33142466848186 20.750498302006605 4.855680706500999 2 15 -13
2369 2 45.27774689567154 21.185846653410966 4.87668736935381 -2 -5 -3
2458 2 3.5397738009864383 27.508483716207454 0.872628956237386 -3 4 -6
2327 2 2.4707021874322206 25.92701333140812 4.669184532033016 14 14 13
12 1 1.7077350696967528 29.310333111980498 4.54832053487296 2 12 -20
603 1 0.7600342652507489 28.453455562030893 1.6911334088682315 7 13 3
759 1 4.255655429013533 29.586309956086694 3.145216971309363 -4 3 0
3153 1 5.636781616500579 29.391163662882537 0.5097961938994728 5 1 2
1071 1 6.790719818939857 26.1159102738889 0.9636977586145066 -23 -4 -1
1478 2 8.677878107450248 28.365855453330784 2.6949603085245775 3 -2 -6
1690 1 8.95811802800857 24.949197095228016 4.1651093620279465 0 2 -2
1549 1 9.925733537208862 26.313868584581016 0.2776306380527704 -6 -5 2
1290 1 11.546904665877655 25.506268546626305 2.5411447086427277 -1 12 17
2857 2 12.368304153298117 28.455921783907865 0.6836912859100827 -12 6 -8
1966 2 11.471269306778176 29.374802226268912 3.9218228488894007 10 9 12
1289 1 12.485374295131527 25.052684111161863 0.09024018597294514 4 -17 -2
1741 1 14.867592252465974 27.506877503906267 2.346766722514441 -7 -4 -7
2842 2 17.842958681855624 27.276062613147474 3.542967310817763 -4 -3 6
1069 1 17.074704919915142 27.045842958317795 0.8414153715521969 -5 18 9
3080 1 21.56003607748094 24.963156380401088 2.8922162858976197 -4 -5 4
3082 1 22.58234878379141 26.530481020952763 0.11580522546264838 14 -4 1
3389 2 20.183398606467584 27.525536215837757 1.2038840634267758 -11 3 -5
1594 1 23.326132674784237 27.76812868905069 2.8307783963692916 1 4 3
3637 1 20.777285683979176 29.405774931292875 3.8900722827612055 2 -6 -4
1813 1 28.368094810534288 26.275100045851154 0.8606886297996207 -3 -1 -13
3771 1 26.709447111147654 27.203295336005535 2.871475517157388 4 3 -8
1986 2 29.239359413560955 29.447691742397048 1.6406708954937634 8 5 -9
2420 2 25.872062194798307 27.434750207841095 0.07886207665425202 -9 -4 0
2590 1 33.06142813855634 24.874185611245625 2.755631075369503 -7 -6 2
646 1 29.967364430123318 25.517704239360057 3.5917508919121377 -2 16 -8
1635 1 31.938082512550956 27.641384537669296 2.180414312588771 2 14 8
1564 1 33.57455760109193 28.13128409556428 4.05990502763184 6 5 0
282 1 30.431849709184505 28.058444073768577 4.598238853408537 6 -14 -9
3189 1 38.1672002547868 26.484705744833366 2.562897629053086 -7 3 -10
894 2 34.9845007701115 25.31603555335513 4.822273737154695 5 4 1
1769 1 35.477042359672495 26.21528332277785 1.814930758147185 -6 -15 14
1048 1 36.16824993508024 28.164061299923294 3.7480761406473664 15 -25 -5
2456 2 44.047744265498046 25.628134316448726 0.442941051781241 12 6 1
936 2 42.40890424395931 25.854905176215837 3.3020257009532137 5 1 5
244 1 43.466104170870594 29.090713072474532 1.238368103740575 8 4 5
3505 1 40.83449888255531 27.282985824750813 0.1033651397234403 -9 -9 0
804 1 40.043914564248404 28.613643536805373 2.8994508795971354 -20 -1 -15
2998 2 46.36535813548617 24.7749213127898 4.1192459436949225 -1 3 -6
1226 1 48.40037667889455 28.04658226066959 3.619463537704439 10 9 -3
1628 1 46.284532181743614 28.484224647594015 1.7393347560909516 -6 0 -2
1683 1 47.84128858912526 26.033180781259713 1.2562189614619859 -17 4 13
1090 1 45.22608730477831 28.397110129228263 4.3462970243218 1 -1 -4
7 1 0.5510656455430569 33.46776834363501 1.593893181230749 -8 0 6
1157 1 3.294749171112504 31.937452529325714 3.487759167468856 3 2 -5
1651 1 3.7366157071992046 34.01050349157791 1.3473043646624727 -5 -4 -5
1017 1 2.248556843517236 30.7092373118181 0.8530690381557493 0 -6 -3
339 2 9.091204988771986 31.072900254169667 0.4508055655556205 -5 14 -4
1534 1 6.110596112682189 31.916468822675267 1.647197423559948 -10 11 8
297 1 8.103614488470804 31.60835925296734 3.8728197306360794 2 2 3
3859 2 13.445731871896482 32.32096799877081 0.7720972725320588 4 2 -8
1379 2 10.795864077752608 32.59747083424047 3.185602467462764 5 -9 5
3408 2 14.3085597245896 30.925976613221792 3.73344538324803 -4 -11 -5
1450 2 18.83812504907099 31.57761350918895 1.7217151303545313 5 4 2
1820 1 16.29510769122124 29.829905656924204 1.2625528067204475 -1 24 -18
2235 1 16.142562370496456 33.132108295961025 1.6739118686974173 9 -3 -5
2178 1 18.31336537571312 34.335995774201635 3.777217964151008 14 -1 -4
1474 2 17.993733778255933 31.227290280660288 4.658439757587857 4 15 -2
2206 1 15.466822680758005 34.513289625723374 4.739061030661721 19 -7 6
855 2 22.329128078784418 30.0619087906664 0.713556820661721 2 5 3
2871 2 21.05383714571287 33.54048941977664 1.643838213806429 6 -8 1
3333 2 23.21218245953719 31.815704034294008 3.3057600766010906 1 -8 4
3446 2 26.9849327960156 32.134888508343295 2.1289873854789985 3 3 -7
2437 2 29.720961164750157 34.53467417228342 2.2773914250563276 1 -7 1
941 2 33.73921689422838 30.85471623610976 1.1097447209161622 6 -3 6
2453 2 32.68421606178232 33.56445605973337 2.4740978447501876 2 3 -7
2433 2 30.460980395631207 31.20625892320292 4.356181836704107 3 13 0
1021 1 34.311481492550136 31.484107675981832 4.479230660104858 8 3 3
2718 1 34.189347066962895 34.54833725095139 4.774088403814214 -13 5 -1
3271 1 36.408210587914674 29.76821477984579 0.8544476055520194 -9 -2 14
1259 1 39.05522910520176 30.10594322986215 1.2709408736639105 -7 10 -5
3216 1 35.56222695584961 33.216345527929754 2.302092418461661 -6 -10 1
3307 1 38.75963559468032 32.61634434015021 2.8728948988579246 -1 -7 -7
1187 1 37.75755093385978 30.12989958269742 3.983980230390294 -16 4 3
2060 1 36.83073302312483 33.38655228876074 4.928215786939574 -11 1 -1
3572 1 42.37816161766528 30.402481870909053 4.36427576065847 -1 3 15
3109 1 44.08508566639577 33.91488843821269 2.2182400039635013 -3 12 7
3707 1 42.139810024421436 31.771027617634697 1.306525559395095 -3 3 2
3698 1 42.57139668709653 33.28911683746327 4.883962989973574 -7 0 15
253 1 47.83968700291539 30.93155444558228 0.6254917503734867 -8 3 3
2143 1 46.904059787995635 33.814277155185955 1.5233899723634872 -1 12 -10
512 1 49.017791999224386 30.714422822851162 3.4279268239766023 3 4 -8
2211 1 45.5362080934293 31.497209260087978 3.3091633031135927 -3 -3 -2
3665 1 2.0979506690351073 35.007144324125825 4.147999373173319 2 14 -1
735 1 1.7825238193852813 36.62319371201004 1.2004977695729342 23 4 0
2068 1 1.711874387722622 38.42370002056563 3.4969408432490834 -3 -1 13
1730 1 4.105210172983705 37.32015342405243 2.8165849323205485 -17 -7 8
198 1 5.786410494069359 34.69022323836563 3.079544717547259 -6 10 -9
3328 2 8.576353249671072 37.70895990371855 3.836114146987183 -5 6 -7
2417 2 8.437360014782906 35.16542773217824 1.626891920158163 -7 -10 1
3424 2 5.646470052400067 37.02422518638105 0.1658844092950611 2 7 7
2127 1 9.256215306397563 37.92605434396226 0.0029265470644119773 -7 13 -9
3342 2 11.471989062767127 38.55630168075892 1.8870418611959152 0 8 9
1423 2 14.002470229381997 35.960251534285305 2.2414162199169056 -1 3 9
2097 1 14.525808303173998 37.84390122708447 3.940540548029788 4 -3 -11
831 2 11.03062096540617 35.39245737988048 0.23998262137736473 0 12 2
1170 1 15.617625014325277 37.994151262073906 0.014953831884729249 8 11 6
226 1 17.098210816745365 36.568873023518734 2.431700973364146 -3 -12 6
3563 1 19.71414666072292 38.970992742310784 2.107757435131804 -4 -3 0
3984 2 20.669238981183195 36.650428387043 3.6368795829222464 -18 -10 -5
3012 1 22.31340430896485 37.612392770182765 1.103545925038556 -10 -19 4
907 2 24.50603599185908 35.53864198726836 2.870023931661802 -5 8 1
3434 2 26.936340029411216 37.86146805301134 1.2820766127352548 12 -6 7
1353 2 26.057598841956587 39.368118715740145 4.185585934976049 2 4 -8
1854 2 31.117183741999074 37.17130732138606 0.45372366449911194 -4 -7 -13
2237 1 33.87944254187775 36.26498645571641 2.806845827306573 -4 6 5
499 2 31.3740220840898 36.832262700431514 4.772973114134017 7 7 -3
3314 1 35.445731327648225 36.4123546347018 0.05815921129715901 -6 -9 5
1132 1 38.80014857763541 35.404008141042034 0.7905311508028147 1 4 3
2960 2 36.87775224376591 36.668353565131035 3.0536265927256996 6 0 -3
902 2 36.713016710623904 38.90298365969032 0.4448642471562744 1 6 12
2947 2 39.68433160225484 38.295638253514966 1.4971043961377255 -2 -4 6
727 1 42.61634859487671 39.268900674047636 3.2581428357040907 -3 4 -4
4000 2 42.87302271809452 37.415509811129894 1.0128620340713548 17 -12 8
2574 1 43.78992700692594 36.61949348603479 4.032382889041479 -5 -3 -6
375 2 41.15916272224374 35.205273458340066 2.4526271764824554 7 -2 -10
1333 2 45.931448974565896 39.255977756126505 0.5193614333016053 1 -3 -1
2192 1 48.626665315653796 34.763336373636875 3.4077742438996874 2 -4 -15
702 1 45.7014421346071 36.45305849022975 2.2061234527356723 -7 5 -30
119 1 48.2219847209459 37.37292851553279 4.7113601927749755 11 1 7
1490 2 48.34290816629613 37.76621761753557 1.797907917943384 8 3 -10
2268 1 45.853916356855095 39.52135452176312 4.155293840227102 1 10 9
734 1 45.59241962586417 34.924166230206765 4.8328427107105885 10 2 -2
1148 1 0.3579214946187286 40.804641362916136 1.1564377333235296 9 -1 -11
3166 1 3.6179236893167945 39.8708170338077 1.2239066970095633 -3 -7 -4
2207 1 0.03637425822163465 40.489108170238076 4.631054160318836 13 3 -6
1103 1 0.7657301060156783 43.85303393951312 1.620242430312661 -7 5 -2
518 1 3.206087218354353 41.47308087518637 3.8364402991745243 0 -9 0
3275 1 3.2546413620037495 44.2622050140766 4.856402708517827 0 3 -6
2589 1 7.729698291887171 40.207808569869435 1.4116266449300097 8 17 12
3965 2 5.0210476018765 42.35844070529192 1.7399772999285663 2 0 7
3327 2 5.729432843049108 39.69210084311589 4.011115766365265 5 5 9
3557 1 9.659622921471808 40.701982163895195 3.492774344729423 -15 -6 13
875 2 7.914484381322483 44.138684414450566 0.19726732875902858 -2 -6 -5
1908 2 7.87097848344296 43.81675374506433 4.855284742286495 -3 -13 -6
3259 1 14.512776436040193 39.71780961996256 1.9033228313157875 0 2 -7
3687 1 14.105118531371552 43.77918181000619 1.1367366139973805 9 -15 -3
3673 1 12.337715107936804 41.24125706762741 3.048251524361137 13 -1 -7
1003 1 11.013363643245588 43.56074511327785 3.6894850601325992 0 7 14
2150 1 13.991170209308578 44.04943192579548 4.094222120408049 -6 2 7
404 2 10.84211472192638 42.254344060732436 0.5963930429564157 -4 -11 5
2057 1 16.8083495633299 39.6806605225505 3.850044197249817 1 -4 -2
2604 1 15.475714388309287 41.8853978317766 2.6541817585220615 -5 2 -6
3525 1 17.139005700732515 43.585213633959306 0.857461161441942 -14 -7 -2
1540 1 19.414073512471795 42.852709518286645 0.07882001416263272 1 14 10
2918 2 22.556916783748946 40.255901236187576 3.0892177434201065 -1 -3 -5
1930 2 19.932522656956326 42.30282212183925 3.1281772366816147 6 6 -24
201 1 22.353020277486774 44.44953984096949 1.9616296419252768 -10 8 17
1169 1 29.003076077563083 39.80653856133301 1.4850909028765318 5 -12 -4
171 1 24.947244036449966 44.09785794698181 0.45991772739057035 -4 -3 -13
461 2 25.305903621407367 43.786184714266994 3.613155597167377 -5 -4 -5
1403 2 25.232897564954882 41.01679939189301 0.45034067530050687 0 3 -9
2977 2 28.961748997908664 43.614010896690054 2.803190893124531 0 -10 -1
3338 2 33.41731375734241 39.69921878749768 2.3665388642467904 2 4 -4
3330 2 30.43333764644757 39.94293805501064 4.532234987908107 -3 -7 8
945 2 32.23156907900749 42.360595383332864 3.151547958136166 9 -7 3
2743 1 34.44689570536594 44.226507029354565 1.4365523797298159 -1 -6 2
3457 2 37.73281853141532 42.234604778920925 0.8081421965648565 -5 0 7
839 2 36.28729453854939 42.87980817828274 4.411002104814821 10 0 2
1891 2 38.365840481071444 40.47217599911052 4.577421533085898 -1 8 3
437 2 40.31276504081164 43.37381668171582 4.342108556125857 7 0 -4
1358 2 40.902603201402265 41.13509219547176 1.046062300210888 -11 6 12
1807 1 44.187116617943495 41.53678387312218 2.2318058224750645 -5 -1 -3
459 2 47.09703298889715 41.688163201966596 2.4888169197862373 -3 -2 -10
30 1 49.39616052414148 43.43425924748165 4.6491357628753205 9 -9 -10
1120 1 44.735131655542595 44.47856658251052 3.4877050968530914 -12 13 -6
1133 1 45.92477122915889 42.95593723300585 0.07636577000279265 -15 0 -10
748 1 2.766345545714977 45.69897580625076 2.0383528579308083 2 -7 -2
724 1 2.9398899160992444 48.382551655762576 2.341857989915366 13 -5 12
2078 1 0.3934613826922041 46.04828987431057 3.9490393079501382 -2 -4 3
1680 1 0.33533260884679233 46.9286811283843 0.6129316135189553 8 4 2
170 1 8.573360449568451 49.17842849415145 4.570881711808254 -4 -4 12
2343 2 5.354954934085928 45.62565392371934 3.5524520327691578 -6 8 14
2324 2 9.23098510859657 45.97590840787182 3.195050625672647 12 -5 -10
1595 1 12.37749185289788 47.642977099831896 2.8663371606962644 -3 -2 2
3757 1 11.64406669975882 45.74647960259198 0.849799814240847 0 1 1
656 1 14.644402843969441 46.33878373244981 1.6168667421754872 3 3 -2
1437 2 15.54840512847008 48.98187491534925 1.5638530494742653 -6 -12 -2
2301 1 15.879141093829993 45.51573156749399 3.510609502050058 2 13 -12
3739 1 18.068628360820462 47.21381972040084 1.407736632784772 11 -10 -5
39 1 18.8116564714163 46.28760349057338 4.228084938376677 -2 4 -4
2312 1 15.080974663140184 48.73555083373884 4.59962584402109 7 6 -1
2928 2 21.441491355630443 47.81462341665105 0.42791028805714465 13 2 6
87 1 24.52212815854145 46.67569544563636 1.589564276142388 -6 -4 14
2055 1 19.971419381031538 45.34622889635286 2.064146241473967 0 -3 13
553 1 27.106087873170985 48.54632422598062 1.0769717237800318 5 -7 23
1394 2 25.342837057307815 47.91645236033964 4.658089978706203 3 -3 -12
990 2 27.48655680744323 45.62545821051474 1.040634781921589 5 -3 1
2398 2 29.441985235342564 47.63251506929764 3.2319284650400744 3 -14 1
2482 2 33.16316749253385 47.981906060382826 1.013411217633145 12 4 -8
238 1 30.621672110482898 45.87513066543993 0.4778344970065475 -3 6 -6
3034 1 32.02747140769102 45.57647980918595 2.8790405922683235 20 5 -8
755 1 33.915234690062725 48.10012013078049 4.601721205852708 -1 -1 4
3680 1 35.39610947265373 46.469431568313695 2.502526326899515 -14 0 5
1481 2 39.143683054706905 47.196980199815904 3.4630361651507173 1 3 -15
531 1 36.67287146265851 48.703910078739305 1.351263336886917 -8 2 9
2695 1 42.621011105683095 48.6433005912567 3.1319284013717734 2 -3 8
3447 2 42.0159741515 45.36709424604237 2.7816436736529826 1 -2 2
2833 2 44.364769282808545 45.67139060462169 0.4574546686902932 0 -4 2
2937 2 40.65752665907006 47.892316122289785 0.47364125115316835 -2 1 5
2271 1 44.440729394864526 49.35625039864626 0.23117943840820743 -12 8 -11
2164 1 45.676560040667894 48.37884335923355 3.021660049010348 -3 -7 6
3722 1 49.274480916438186 49.183331044953015 2.5624309825213056 2 -3 -14
3664 1 47.51829111305503 45.13392470128088 2.28137137426486 2 1 -12
255 1 4.504192352508878 3.332276659701014 6.422695332807268 5 -3 -12
189 1 1.753310582573359 4.3559319639783824 5.576431733101734 -12 11 -5
3528 1 2.012094690987235 2.5602346856284814 7.610640481601215 11 3 0
49 1 0.5956384736195078 0.0998809182704261 8.49360810908744 5 10 5