LAMMPS data file via write_data, version 2 Aug 2023, timestep = 15580000, units = metal

4004 atoms
4 atom types

0 49.42095145851651 xlo xhi
0 49.42095145851651 ylo yhi
0 49.42095145851651 zlo zhi

Masses

1 6.94
2 22.98976928
3 14.0067
4 1.00784

Atoms # atomic

1519 1 3.703872663815999 2.660868272116255 2.811100216757035 3 0 3
95 1 0.8572741472554571 2.272399372364193 3.4590028356808284 0 1 -3
2147 1 2.0013479537104386 3.0310348556477087 0.1081702229178074 1 -7 1
3449 2 0.6785452339948433 0.21600529614338151 1.3156734116017446 11 4 0
3220 1 8.9290838467645 4.110925530487878 3.684416101370977 -1 -5 -1
1725 1 5.902577153954649 4.26146469724972 4.251969859122211 0 1 -2
2320 1 9.426885185578234 1.1951715846601738 2.675393906437771 -2 6 2
204 1 7.879872413485936 1.8944139914102773 4.90946111453564 2 3 0
1323 2 6.798085361994111 3.8293102849728045 1.3255892971760317 -4 -1 2
2040 1 12.231017909339048 2.153291647626819 2.098683226278781 0 -1 -6
1107 1 14.638563879380689 0.8978932710139401 1.0933448052677537 1 0 4
51 1 13.537035653246315 0.29334491415947567 4.210710613500307 4 2 5
607 1 14.904272673843648 3.651534594959504 2.6268435884538515 -1 0 5
2244 1 16.39844730109199 0.07124828119928754 3.5324213289342334 3 -1 3
2739 1 17.44770438663893 2.4116932285773043 1.4346805631549358 -1 -4 4
3309 1 18.524718023828008 2.8136031407820075 4.302442186632934 7 3 2
1588 1 20.081446126562 0.6767656318199882 3.623832319091678 10 -3 2
3299 1 20.753058660406367 4.09520470213135 2.7499233125765827 0 1 -2
2258 1 22.45900443309052 1.4322057336995537 2.2371667067528236 -3 1 1
1370 2 22.386719409254766 3.9683957301258057 0.2024903077682792 -1 -6 -3
2128 1 24.515570143058092 0.6940846028571621 4.422168126354359 -2 -1 3
3352 2 19.963632387847813 0.21663890691388168 0.797761084529389 -1 6 5
1520 1 25.353727815298715 2.7006999147697663 2.0122796581559803 -3 -1 -2
762 1 27.727661600015058 2.6782389612331845 4.500310146580973 -4 -1 7
251 1 27.71998451037248 3.266431561592714 1.0153544297746129 -3 -4 -3
870 2 29.981006229424178 1.4865488770731998 2.3825861557724215 0 3 1
3476 2 33.08782133867865 2.181685476126812 4.617682113929648 4 -3 2
1427 2 32.76861764511888 2.3987841009060724 0.22214004660971134 1 1 0
473 2 36.12528693073997 4.052162002041268 2.8307188394041156 -1 3 -7
3809 1 36.95717846569011 2.2831082758393326 0.8400855957257576 3 3 3
1419 2 35.824524540689346 0.7016639884338781 3.6913898473963913 0 0 -1
3247 1 40.25046525842194 2.2528743428856917 3.531615330548635 2 -1 4
1685 1 43.33347241311585 3.2152117876048796 2.6180054099975507 0 -3 0
3106 1 44.030494241697156 1.024299988316554 4.821178032723554 2 -1 8
741 1 49.41513196149997 4.402496687167633 2.37989219378339 1 0 -1
2897 2 46.869299452123926 3.466265952865186 3.853874960295127 -2 5 6
347 2 45.587507677009896 0.5497012759394851 1.6666443361851029 -2 2 2
2738 1 48.47087748892031 2.378574912157615 1.1437715938922421 -1 -1 0
848 2 4.230790014799773 9.38484282610829 2.154994789841602 1 2 1
218 1 1.8761995058566523 9.30559893500802 0.4224087767190479 2 -2 2
1258 1 3.387982829609932 5.35861972455257 2.1525034870073996 -5 -1 0
1003 1 0.4155987626601461 9.022509016050932 2.589188111207597 -3 0 0
1093 1 1.7607004515121287 6.977751524176906 3.973888299500421 4 0 -2
2277 1 1.745767141376711 6.711268646562661 0.2558001206303103 -1 0 0
1037 1 9.450347507661991 5.742358227847598 0.8205033216414964 5 0 0
2116 1 7.4778251680458725 7.245737883845117 2.3118375155095947 2 -2 1
3029 1 9.759689695207307 6.738914338782426 4.413392130769696 0 3 4
3579 1 9.661686379511744 9.644718882179356 3.42137834649357 -2 5 3
3103 1 11.99678387232635 5.785512249700154 2.0426784525254775 -1 0 -3
2743 1 11.511396559956294 8.360338495327007 0.7900218573164495 1 0 -3
2816 1 12.158575306515989 8.607332060268194 4.550879890801961 0 -1 1
1772 1 13.24998523597797 5.56752244029163 4.747174305880631 1 0 -4
2655 1 14.506394539263438 7.13299584783929 2.3847028260511065 0 0 4
1434 2 17.46113761563896 6.5298562844615144 1.9257202908324316 -1 1 -5
2163 1 20.94910097805326 7.154370722543797 1.9055638355683122 3 -4 8
446 2 22.49593486438598 6.16820258059865 4.812975676420663 3 -1 0
1982 2 24.384179051443702 6.127004504390937 1.754577565724765 1 -1 2
3493 2 24.27525402249715 9.344154828841758 4.386673553298555 -4 -2 1
3369 2 27.294660111812668 5.542582302301018 3.6779609213045705 0 0 -1
1935 2 28.00887547585903 8.434333913310681 4.089524004121982 1 -1 -4
1694 1 27.413889943872427 7.075038953132772 0.548971180716684 0 -1 0
1389 2 30.656948480864788 4.9478315646273385 3.682921405420776 -1 3 -1
3353 2 30.81059564502263 7.672282094400982 1.8010466063826671 -3 -2 3
2246 1 33.50409189214713 5.437344117669442 1.8937318400390883 -1 2 -3
914 2 34.09132447607073 8.649680969318894 1.7028572876865116 -3 2 1
2310 1 33.916556409841995 8.840518563227079 4.795837874539943 0 0 -2
1387 2 37.725148117822094 6.8407718403667825 1.2522434494636956 -6 -2 4
3913 2 39.35847424009092 7.440169709394125 4.032260770072267 -2 -2 2
3628 1 36.01805471242657 7.027717432617317 4.575798210768768 1 5 -5
1795 1 40.52360960735661 4.983497917260575 2.085893063275499 4 0 1
806 1 43.22759615640166 7.728716047625592 2.3343012115782806 0 3 0
887 2 40.748560301397504 9.58788245836907 1.0029477979934112 1 3 2
3764 1 42.31276031970518 8.849226769572784 4.589042772819991 1 2 -1
3731 1 41.54420898693704 6.583891989964086 0.13372612103258064 -4 5 -2
144 1 46.3798149763377 5.298780554004682 1.8979667918685648 -4 2 2
3749 1 48.00426706155355 7.448077606713935 0.8534757236711227 1 -3 -1
2098 1 45.87786925801791 9.445788477280704 2.876084360466353 2 3 -3
2400 2 44.508867481997655 6.028248318307059 4.601297341202546 -2 0 2
2317 1 1.3782242091714478 11.613868184698786 3.4859893484004796 -1 -3 -1
1833 2 2.3874528289575525 13.904388169287415 0.7006779033803721 0 -2 2
3475 2 4.97773449729949 13.33276353491985 3.0529821730501285 -1 4 1
1822 2 8.441744093155101 12.607513649857296 1.2531893992254444 0 -2 -4
1234 1 14.40923333694235 10.143811100144433 1.8065866469894487 -2 0 7
305 1 13.95850488316207 11.08903389355209 4.757681252834886 5 4 0
2903 2 11.666244634131509 11.75254942856325 1.7960411928539164 0 3 2
2370 2 12.876574770233363 14.126859362150295 3.3289153778785394 -2 1 3
2495 2 17.57078147360021 10.882578979301446 1.4342462548082684 -5 1 -1
14 1 15.91747850939386 13.175808728729875 3.1244702457894715 3 1 -4
2676 1 18.347018250539243 13.627584121873635 0.6851906549424307 1 1 0
356 2 19.072125298829057 13.281951008991161 4.312239252464262 -1 2 -5
2104 1 17.189216426903204 11.057360395016149 4.905353695383995 5 0 -1
1923 2 20.427674142793744 10.456025462673573 2.6501446181505353 3 0 -1
1980 2 23.250879527921345 10.03768796166606 0.7757263954487355 -2 -2 1
3268 1 21.48749951526021 13.84046680166148 2.367866741727984 -1 3 -4
415 2 26.405683156781343 10.416617495389847 1.4784286201052663 -4 2 1
2423 2 25.68506803563182 13.059745469569997 2.883326072286527 0 3 0
3452 2 29.09642198659668 13.429263600269074 3.113174938360113 2 1 -3
919 2 32.48649691441173 11.229048266762863 2.154224727721171 1 -2 -1
170 1 29.94103056087539 10.286776316177463 1.0880006225585215 4 2 -5
2942 2 36.562768707001936 10.363243820304012 3.328324522063071 -2 2 0
2335 2 34.788803873424506 13.760230578919884 2.1272236097714927 2 2 6
2195 1 37.60873895225523 12.899637739195793 3.529412336481346 -3 -2 3
2292 1 39.78436201709934 12.522014081451028 1.824561768829171 -2 0 -1
2165 1 43.312143273642874 10.917659268985298 2.445738589612566 2 0 0
273 1 42.64326021846123 13.493787662706916 2.441248519424364 0 0 2
691 1 44.456219329914774 13.946723290855928 0.23513091576895134 3 -2 -2
1017 1 40.47513816794602 10.956609155263319 4.211339149165368 0 0 3
3924 2 48.82119621978722 11.236480026914636 0.7237480848814835 4 4 -1
222 1 46.06586943164034 12.90382093362727 2.2260762157803407 6 -1 2
1466 2 48.58064310907934 14.3587991948841 3.185155908946087 -1 -2 0
708 1 47.93853305812825 10.45524171527806 4.801885914663129 0 -3 1
3534 1 45.80260101274729 11.278338468464453 0.1528684726898105 2 0 2
683 1 2.7530784199091727 16.1968870127155 3.271267402906453 -2 0 0
1890 2 1.1140768756726178 19.20658031930288 2.44722762801349 2 -2 -1
2241 1 3.4987817894080235 17.409795044233814 0.48214336754884074 0 -1 0
242 1 6.435232351031992 15.576251380840443 0.6446532411821547 3 3 2
1315 1 5.491592055444259 16.61810643048152 3.422776323448701 -5 -1 5
853 2 7.706877075633711 15.30664558541588 3.2911315266752643 5 0 -1
2986 2 9.520432444970666 15.708171460219695 0.4901965070790246 0 -2 2
837 2 9.780326439011878 18.69982874728899 2.665450416938305 1 -4 3
2635 1 6.590402176137918 18.46284368691026 1.3826755551026293 3 1 1
1156 1 12.208866940559574 17.693565994094925 1.7683291210085175 -1 0 6
3796 1 15.777235794398742 18.83802482412352 1.8520020274170033 -4 -3 2
2957 2 15.597640467607382 15.768401466994383 1.087998280963647 3 4 0
2205 1 18.184802634035965 18.749050407695613 3.9267250997876073 -2 -3 -3
138 1 17.42985227856466 16.01691629177117 3.4757540110354466 0 -2 -1
1484 2 14.863115645606864 17.29233364162232 4.100613465998609 -2 2 2
621 1 19.02987905915976 16.427272654164398 1.0031507642104927 -5 -2 2
3194 1 20.750780273777384 16.999975683644095 3.7524195671774216 -3 3 3
1204 1 23.404352229835357 15.922818075721787 4.083631198123503 5 -3 2
3975 2 23.738740234930805 19.38233213917192 3.436982413816973 0 1 2
2216 1 24.06532272387961 16.939230020453284 1.1495045153174328 1 0 -2
2259 1 21.997754755747287 15.369700382797827 0.17300077773044692 0 0 2
2741 1 20.387097874227067 19.137416858687327 1.3796650448962116 -2 1 1
487 2 26.942130456012663 19.06101443595113 1.6164895214226054 0 2 -2
3602 1 26.983191047741165 15.9098520739342 1.56319237664404 4 4 5
2972 2 28.399896941389592 17.819890980357776 3.877656223461029 0 3 -2
3732 1 26.065367075360516 15.664956841710111 4.544227514545841 -2 1 -2
353 2 31.609323183329177 15.604613137231532 3.26295737166347 2 -4 2
645 1 31.44736056657822 18.84442915220026 4.0435948519668425 -4 1 0
1029 1 31.734366826810355 18.315899722334162 1.205665061625164 -3 -2 1
1809 1 36.89048930564545 16.27445977374258 4.220005757929405 -3 0 -2
1145 1 36.509177927197285 19.20994319526463 3.9237528854505745 -3 1 1
817 1 38.27058807902634 15.773935022212687 1.0861239283189132 -3 5 -3
3548 1 38.1159499829068 18.258236309450027 1.4129273833615614 -1 -2 3
553 1 34.7213712510402 17.04692083857875 1.9906109136679233 -9 0 5
2107 1 41.82429113874791 15.36002378067072 0.6192965305442347 -3 2 -2
2805 1 40.04623692693661 15.12619620490837 3.826242140879442 2 -5 0
595 1 44.19810165322281 17.878923611806496 1.253209044353518 -1 2 4
1731 1 40.84816732768947 17.40763660039539 2.713739800781644 -6 -3 -1
3412 2 45.13159090716608 15.539280054870057 3.8831979554797087 -1 -3 1
1985 2 47.86384939806429 17.21601083988708 4.758847676304417 -4 1 1
773 1 46.58466937076997 16.47642026666909 1.38004022966043 0 2 -3
2847 2 44.99425667475271 18.769371712865745 3.666217663345625 -3 -1 -4
3651 1 3.0287291223058355 21.16108900598605 3.092573176793437 -4 -2 1
3599 1 0.2651050517562474 22.012722406232676 3.1530926663720087 -1 1 0
738 1 2.846845404561758 23.321986928548508 4.502521340063123 4 2 2
1020 1 3.9115143277697864 23.192784448960595 0.9742103426062115 -1 -1 1
1858 2 1.2130660213210247 21.42852913044555 0.3275597810657642 0 1 4
2582 1 4.514024522808012 20.303455991948148 0.17074139032363161 -1 -2 -1
2876 2 6.82134654284779 20.413302261224892 4.010579006669208 2 -3 2
3478 2 9.395221960624646 23.254393525234335 2.3727465376047663 1 1 1
2958 2 5.8808498815046955 23.298511533164447 3.5424180726436987 1 -1 -2
3778 1 7.302444500479207 21.716123592793352 0.3471656129468762 2 -2 -1
374 2 12.584419489366296 20.329062481317337 3.6423238493223056 1 -1 1
1932 2 14.084594930402144 21.29653473158628 0.8034313492202323 1 4 1
2334 2 10.710136556538007 20.993780731587304 0.09165623946308638 2 2 1
3516 1 15.349632742085559 23.846825675297247 3.5407784130796296 1 -5 2
2223 1 17.83557313508531 21.688510958983983 1.6161343375681223 3 -1 -3
824 2 15.876511098355222 21.09149912317154 4.215450236012872 -3 3 0
3068 1 18.008016947213406 23.132863083797403 4.46300274502666 5 -1 3
697 1 20.446412201507606 21.14447500199426 3.5684533553295608 5 0 0
2518 1 19.78094994744192 23.86073835659045 2.698397076190018 3 -2 0
3089 1 23.621849528687612 23.266625964455965 4.157835236258748 0 1 -2
436 2 22.22855413822628 21.760787119119488 0.8714542809566226 3 0 -1
1867 2 26.01186817828739 21.935749436629127 2.267168766741103 -1 2 2
980 2 28.355497517107107 21.366331675711535 4.708937194251264 -1 -2 2
2389 2 28.271227631588726 22.213435735110327 0.23306745596205955 0 -4 0
2179 1 27.171206709232056 24.65314053546649 3.2333948717691245 2 1 4
2778 1 25.15896460282183 24.58427956724513 0.8951913929943576 1 -1 -1
1105 1 29.7091931274388 20.63175897975403 2.3808481132456483 3 2 2
3440 2 31.632084394756014 23.06974421246864 3.7256259316244917 0 -2 3
333 2 31.727791968554776 24.071905844218715 0.24165117280834286 1 4 2
3365 2 34.70102133876112 21.08905972130038 1.4391261065572936 1 1 1
1064 1 37.48815505763254 21.971855800742823 1.9632872911518469 1 2 3
3808 1 38.99190852227456 20.68742422831663 4.888450301388168 -5 -3 -1
1015 1 36.88102920114956 23.062125369099967 4.451134673387911 -3 -4 -2
3607 1 40.84171350772004 20.461362195183185 1.841193084125804 -2 -1 1
3156 1 41.76411320515636 23.79345990294424 0.31526356951306295 -1 2 0
2105 1 43.54570826966702 20.86541027763037 0.48803226889086676 -3 -3 4
3586 1 43.65922152352265 22.79892537904805 2.5836813473039104 -2 -4 3
357 2 40.467537606422475 23.239500224192668 4.431558269265892 -5 -2 5
3852 2 47.94997273078761 23.728630975850354 0.9975668286461443 0 -1 -1
1769 1 44.933285430945645 23.266910756470693 0.16289778268648325 -2 -5 1
1692 1 47.38610859916724 20.008898630198473 1.3005291430664871 -2 1 0
3052 1 46.351277465777194 22.205559999226804 2.876758883944297 -4 1 3
1799 1 47.756033517095425 20.456744855252 4.704260262909872 1 0 3
3736 1 1.2529875650940763 25.216848248396932 2.1153676670313817 2 0 0
2712 1 4.438840275841523 26.024192368341406 0.8948227951952245 5 -1 0
3483 2 1.9631507274757498 28.884063160794266 3.2923059703111277 1 -2 1
2769 1 3.388617137012927 26.2595854453492 4.291643276124172 6 4 -1
2845 2 0.3720070755521289 28.00146279668594 0.4015040899398267 -4 0 -2
3929 2 3.5678089969459443 29.56049622670229 0.42835154760876104 -4 -4 2
2440 2 7.7189984474275235 25.702460901178917 2.2368657653452586 2 -6 0
2278 1 7.785804313808391 29.57908993834088 1.0186084061387393 4 2 0
3047 1 5.568696942493435 27.548899690951988 3.413333359105881 -3 4 -6
3099 1 9.511525054239232 28.240729174950143 3.18868450363503 3 1 2
479 2 11.656869965639153 25.61976116797987 4.046225614488993 0 -4 0
406 2 12.776793576350169 25.171906809755132 0.887457013563649 3 -2 -1
1676 1 13.019055408998751 28.555395281574217 1.6147498745738198 3 -1 -1
3256 1 15.484174071367995 27.610391283811964 3.248650122581962 -2 0 4
180 1 18.472689464822096 26.72751422554152 3.3189587376941097 7 2 0
2528 1 18.177141944119416 28.84729789377604 1.4821102498469063 3 4 4
1375 2 16.64898141486366 25.13692165919527 0.6448101742840986 -5 -1 -3
2189 1 20.017020440906 26.736994358223075 0.7321785047104223 -1 -3 0
1281 1 20.784567747153584 29.42009258254147 2.945021913584009 -1 -2 -2
2130 1 22.494408551897017 24.770258631686897 2.0991445201209338 2 -6 -1
830 2 23.973038922592337 27.372272371833297 1.5779448711814477 -1 2 7
3033 1 20.69735934597109 26.49675105928893 3.9726992055985026 3 3 0
1284 1 23.486877619717117 26.72617615310893 4.745576293378661 -1 -4 0
3291 1 29.32856789344512 25.225402465662484 2.0190285515159463 4 4 -3
3104 1 27.006264677755304 26.94437474280022 1.1347053832282 3 -4 -1
1948 2 27.42502676543305 27.69104809461664 4.733171401150285 1 2 -1
3605 1 29.83019302686833 28.041246710543586 1.9482738459580717 2 1 -2
1820 1 32.81546575348927 29.22662490438766 2.021780972949865 2 2 3
3910 2 32.94960544254977 26.27476303200888 3.4227116004108074 -2 0 0
3836 2 38.190142498577394 24.911842481999255 1.7962355345635728 -1 2 -2
3401 2 35.11896408624323 24.79422769398917 0.7061775899477727 -1 -5 0
2849 2 37.534939841606075 28.84735664922571 1.6951974609319909 0 1 -4
2475 2 36.68033995625471 26.901733836302206 4.1232851735502605 -4 0 -1
996 2 40.64881774201128 27.675216386651044 2.909487281642839 2 -1 -2
1950 2 43.442131061126375 26.477448432079633 1.0271821005885702 1 -3 0
967 2 45.61730047144804 25.101125081929965 3.409974818713743 -3 5 -1
3891 2 47.604030805176215 27.42744485647348 2.0448462068295106 1 2 -2
1410 2 44.918098258258745 28.715611615098847 4.384188932242662 -4 2 4
1506 1 47.492490837483 29.45047926109799 4.140754210302877 3 -1 -2
485 2 2.892338775492392 33.474381168362655 3.7695787630502244 6 -2 -2
2408 2 1.2359743476923908 31.670000023152244 1.3462133422709268 0 0 1
2057 1 5.256291923403052 30.03334800115956 3.9223613408130777 5 2 0
420 2 5.75843855031552 33.03360442019236 2.0440363269814137 -2 2 -1
3219 1 9.373117284943167 32.60731667675871 0.9034598335569594 1 2 -5
3322 2 8.403508147265304 31.146013978400592 4.466539272745166 -1 -4 0
1796 1 8.749537855090255 34.17651787237398 3.973760669693443 0 -2 -2
1444 2 10.854377812408734 29.821842215056403 0.6618201968032043 2 6 2
2032 1 12.619134316929026 33.06023802640378 1.2193822685881035 -3 -1 -1
9 1 11.629201113031202 30.71780857346584 3.056089242669085 -4 0 -2
2700 1 14.260418330208653 32.79485242931494 3.5894239038814844 -4 -1 -1
304 1 11.290575735162323 33.47881011853685 4.169746413280244 -2 0 0
3935 2 15.15092345089191 30.553275250771268 1.8232789278534902 -2 -4 1
3308 1 17.802476257058423 30.914793556959054 4.374244326629122 4 -1 -1
3492 2 18.08083383139531 32.81116875083638 1.1586024249605515 1 1 3
58 1 18.96723081258941 34.28999251787488 4.75229911014385 -3 1 3
1382 2 21.48061240511054 32.731682158999114 0.4168441931747775 2 1 1
3933 2 23.621080143224475 29.8609609426207 4.091523053379221 1 2 0
3980 2 21.042334467898065 32.56189601862276 3.992548365650525 0 -2 1
2723 1 24.008575052264753 30.646473172461743 0.21238405799989207 -1 -2 2
2301 1 26.8761578675897 30.58873733693837 2.1261699978051927 3 -9 2
1092 1 24.77792054693133 32.38396870632653 2.6267569785803007 3 0 3
2642 1 27.35852471535692 31.21001159167375 4.6415707552977015 0 1 -2
3209 1 27.445383455873365 33.113187738923905 2.635615463627125 1 0 -5
586 1 29.417633684425763 31.197952481591397 2.320828001473447 4 -1 -1
3123 1 29.50404323475239 33.31841542618414 0.6659960342972013 1 -1 3
1185 1 31.34518568070752 33.078095644911784 2.405647635207877 -8 2 4
2692 1 34.49505284567792 33.474500006571716 2.6652098996886355 0 2 -3
2074 1 32.75121587216905 31.124344439373054 3.711586684005302 -5 -1 -3
2691 1 32.72206589106135 31.436421277607312 0.5895214608120889 -4 -3 0
2183 1 35.57507330227444 30.51819911880895 3.0692866096631346 -1 1 0
3790 1 37.72816331919014 34.385838631835 3.196155690288003 1 -4 -1
3815 1 36.471956138739166 31.771840050826242 1.0493641316196236 3 -3 -3
2507 1 37.4081157485304 31.74156090328416 4.6860727253354195 -3 -2 2
2054 1 40.179741950980564 31.124884287308767 3.766938084011688 1 -2 4
3652 1 43.23475887140169 31.547083604388153 3.4448662533717984 -1 -2 2
2621 1 40.60644971369422 34.22678833314613 3.9488404235318204 -3 3 -3
2313 1 42.844112593263866 33.362308025144785 0.8615197216566326 1 2 -3
3446 2 39.64806544806531 32.897370106380976 0.6134887670320874 0 -3 0
2463 2 41.27407708545979 30.06101273562508 0.6552521599843057 -2 6 1
2022 1 49.025097102024624 32.051002771502986 4.769531576978822 1 -2 1
2224 1 46.92670521609711 32.18092230864655 2.39448451331608 0 -1 0
263 1 44.72810386045294 33.521483218265764 3.6225013621069238 -1 3 4
872 2 44.970892349831004 29.830495379062583 0.5166881215306152 0 0 0
1745 1 0.7130106390482468 37.856929028325105 1.832957639335788 0 0 1
3085 1 3.444387414372887 38.42609161342131 2.693039047919417 0 1 1
50 1 3.037484758627027 35.582708823629936 1.2228241655880028 5 2 4
3158 1 7.58868079441565 35.298518008137066 0.6193124308488324 -6 -4 1
2100 1 9.556842056803289 37.93394844253165 2.7322224742889305 0 1 -6
2506 1 6.430198033197949 38.60565638093063 1.0405266568339544 -2 3 6
1751 1 5.898170038574808 36.13509163907052 2.7799188743065444 -1 2 5
3524 1 7.252506083065494 38.53701552059514 4.412361743901906 1 1 -2
1285 1 10.263196750090536 35.28625141957925 1.4732132070734905 2 1 5
2663 1 11.040013778640123 36.044429774160335 4.228467173539988 2 -1 1
712 1 13.120509007637166 35.54929452005183 2.935761486049472 -2 1 0
454 2 12.375952239670813 39.44657524880665 3.8021877836288094 2 -2 1
2573 1 11.801931623654337 37.82093499360861 0.5645357779516603 -4 -2 3
1667 1 16.156980483904675 35.29443823699708 4.0375983235628965 1 0 3
1761 1 17.323526772654567 38.582053116574684 0.18280382829101527 -3 5 -1
2509 1 14.934534329253465 37.83752153501703 3.0246855722344814 -9 -2 -3
2937 2 19.21777180657933 35.813615424627194 1.692195209085149 3 5 -1
2636 1 19.74789982799182 38.49927857179925 1.3120533226325597 -2 -1 1
3326 2 15.630305038433534 34.75871201582958 0.8768877887049352 -4 -3 0
2846 2 22.454921289414724 37.04386711982533 1.6307059722079686 -5 -4 2
3568 1 23.01591221537726 38.92224362699257 3.65710228670392 -3 0 4
529 1 21.29967227000114 36.3483514761487 4.612738213979387 -1 -1 2
3953 2 25.288452024100156 35.177540117547096 4.30836455537233 1 -2 -1
363 2 26.55530828520123 35.83765084185257 1.0458949047268362 -2 1 0
393 2 26.77823113096435 38.53770995171154 3.734260104777651 -9 -1 1
3712 1 25.549044639080122 38.71325123555067 0.5979485716723215 -2 1 -2
3339 2 29.22842803365371 34.81088623183207 4.410737129442626 -3 -2 1
3525 1 28.861011874398976 38.107919527732584 0.4813938451075382 2 0 0
3178 1 32.13688528563566 35.9106081158846 3.2804860695858076 1 -1 1
3260 1 31.812321720806498 38.789809298760495 0.43536574143463325 3 -1 1
3686 1 30.14181906103094 35.653872853775454 1.2654067177332187 2 -3 0
1170 1 30.054373376245795 37.643671466071694 3.2707108167137804 1 -2 3
3083 1 33.07266853474015 34.80603837762283 0.7886053844060905 -1 -1 3
3050 1 34.715756145061384 36.81875590171876 2.806327080376619 0 -3 -3
2134 1 37.62949651078107 37.861102657038955 3.5575536047409257 0 -2 1
2015 1 36.629711336550464 38.429928104877 0.7877324177007238 -1 0 -1
2248 1 35.27341869306194 38.909995064728726 4.093526526137184 -4 3 2
1491 2 36.689516791900196 35.59069002371878 0.6676959886508175 1 0 -1
3141 1 42.85566313570974 36.24945718867197 2.8962778296584717 4 -3 1
3546 1 39.889755040602196 36.34639532880636 2.2727821518276787 2 -1 -1
3691 1 42.939287435164125 39.520703526714605 2.635587789551951 -1 1 1
2699 1 40.54927293592097 39.29461459031907 1.0817156650442734 0 1 -2
35 1 40.531272037413615 38.534706161689115 3.8372071922842474 0 2 1
1112 1 49.28844471746426 35.016416425095116 0.5258817697964936 0 -5 5
2444 2 46.0542498137626 36.81234239705988 1.1783423043847494 2 -4 -1
3345 2 48.72500993179029 35.18012471261602 3.6965622986994204 1 1 -1
745 1 45.2154576523731 37.71786763534904 4.203319664691319 -3 -4 3
1115 1 47.71353808737891 39.083615756909516 3.1281646047101086 0 2 3
3563 1 2.21406112760651 44.11343430841272 0.35503325993669216 1 1 2
3116 1 2.4340526982194417 40.786797646343224 1.7814151147939525 -2 -1 7
2026 1 2.4314903174815488 43.313558897649564 3.4078640855095226 -2 -1 2
224 1 4.6548918468723235 40.33965276651023 3.903864387320815 -4 -3 0
2720 1 1.2282894192439358 39.977156442163576 4.724023973150965 3 -4 5
3292 1 5.0713660195263115 42.1510020534867 1.964683768844581 -2 -3 3
2083 1 8.426012708794755 40.76963958064943 2.9766789562372296 -2 3 0
1042 1 7.4182224592106145 43.98066407331978 0.5040811311398732 0 8 0
2533 1 7.295461891854089 43.58027536416307 3.2797203698206845 -1 0 3
2410 2 9.672386167074281 39.997478614505205 0.6119187414615995 3 2 5
2777 1 13.615366307263594 40.961813512633064 0.9802820456181063 -2 -5 5
3232 1 14.51922509439477 41.93316821448369 3.70840242968137 3 2 -3
78 1 10.260475496225052 43.3842624376034 1.7355014475953296 3 2 4
2892 2 13.571834638229133 43.97949177891455 1.2683193972209377 1 0 -2
1877 2 10.38169724187261 42.52521216249893 4.903549591284816 -4 0 2
3813 1 17.751601587690452 39.815547686729786 3.181889593455317 -1 -1 1
3641 1 15.554917556429428 39.5500793042982 4.912863488708922 -2 1 1
3739 1 16.359584605238528 43.51653168092937 1.293863355848377 -6 -2 1
2594 1 18.16175105148209 42.758645828439406 3.5126260892462904 2 -1 -1
1216 1 18.304252155834785 41.67326791008275 1.1869440963468083 -2 -8 -4
2050 1 23.737118300169243 41.99821484596559 1.7357811072718006 2 -1 -1
1544 1 20.551806687405307 41.58659856346897 3.3383845082375334 4 -2 0
3561 1 23.36627694446447 43.53998325777455 3.9937587575633846 3 1 1
2121 1 20.806048140107432 42.78848897667609 0.8517699060955539 -2 -1 1
1627 1 21.290552217831912 40.2590715367172 0.2206448192468848 -7 -3 1
3611 1 26.655064955028397 41.46759466361399 1.7888780895775016 -3 -1 -4
1550 1 28.51533551005388 40.81319573840359 4.532791043000355 -8 -2 -4
2379 2 29.889802071728344 41.900362104067504 1.7330815080144606 -2 -3 2
591 1 31.986834179384484 39.97045941686952 4.280797933142926 1 -4 0
30 1 33.782188454964356 40.61565018740252 1.835921986090806 0 0 -4
3002 1 33.80561777804022 42.71165470748371 3.5285103288327093 6 -1 2
3426 2 34.86830218096856 42.830303115931166 0.10743202045159468 2 -1 -4
2879 2 37.547323988352574 41.34972251393433 2.455881102867348 -3 -3 3
512 1 36.28694835599709 43.85100664466648 4.451594734065778 0 -2 3
2025 1 39.73941606280679 43.44636447913733 1.4281636008122809 -3 0 -1
2059 1 43.313276135234545 42.89107288258735 2.580575727886393 -3 -2 -5
585 1 40.79322144125143 41.493537566749055 3.4350846494648706 3 -2 -1
2752 1 49.21838377301898 42.11882272197191 2.742327452420587 2 -3 -1
3538 1 45.64433416829105 40.425853223009256 0.8544670676377191 4 2 0
1604 1 48.39919089327834 40.81571575109606 0.13123277063166228 -3 2 2
2914 2 46.40851214246591 42.70583028675662 3.3512810026264037 -4 0 -4
2756 1 48.73284544654623 44.31091333357124 1.5550638991726495 -1 -2 1
103 1 45.79724381891526 44.17185488461365 0.1538864618623077 3 2 2
484 2 4.494389675483875 49.288672096429046 1.5905997314272367 6 4 2
3223 1 4.604710884192825 44.8340934211653 0.9826254537485595 3 1 5
3414 2 2.2770906478382176 46.3477681586963 2.8961536237898367 -1 1 0
18 1 8.265139103163268 48.12136703355608 3.565138240192509 1 0 -1
3383 2 5.708564924830195 46.25120298952094 4.1904782352067524 6 3 1
23 1 9.4860303633448 45.29359513792113 4.022810441589545 -4 4 -2
1282 1 10.22241254863023 46.0785331752269 0.9930359190549728 1 -4 -7
1525 1 14.59624055691251 47.013847364053575 2.285843464402338 2 -3 2
3447 2 12.794169803420903 45.21154903459061 4.703530643073955 3 1 1
2666 1 11.705093455498726 48.6156987411028 1.9366545491202758 1 0 3
88 1 18.060075400154204 46.99797858064385 2.687702490574429 0 -5 -1
2148 1 18.545410156003754 44.92108832156513 0.8803916776089107 -7 -3 -1
3583 1 16.097382278957415 45.044083261471854 3.9284602860305005 1 2 -2
633 1 17.0587760984094 48.53643151681057 0.6683886921115171 0 -1 3
1614 1 20.779756005508858 44.90269400198183 3.2717654080676226 2 -5 5
3271 1 20.91308455293213 47.41793289903327 2.4565510449071186 0 3 0
2225 1 23.429164828623062 45.389255426396716 1.5640521126720552 -1 -3 -1
1509 1 23.048968951000408 47.34899849216333 3.852956101058911 -1 -1 -4
285 1 24.089027938979882 47.99851104962626 1.0736784738342697 0 -10 4
2472 2 26.313300817792182 44.59873962956161 2.7388034738227285 -4 -1 3
1470 2 27.333163695324878 48.81492178246702 3.5316730100922555 0 -4 1
2718 1 26.974790919861242 47.35655584737761 0.17735460610138612 -2 0 4
2381 2 29.378561021079477 46.164787449913334 1.9176038515362253 -1 -4 1
2834 2 32.54227554504489 44.57520566666976 0.9403747032855768 3 1 -1
418 2 31.269425156202672 44.846714026055636 4.187042512827257 -2 3 1
2922 2 32.19536174641199 47.96264461769823 1.6684137565608261 -1 0 1
3849 2 38.23671087846444 46.04698781221827 1.8986458786528906 2 1 -1
2877 2 38.963697121211666 49.40642184379897 1.670667906030803 -5 2 3
942 2 34.87817888592676 46.37734227161325 2.589371456877094 1 0 0
993 2 41.33056494363122 45.52284077082957 3.050806204167391 0 4 -1
2429 2 42.73915062802085 49.047954551016005 2.1767870637392828 -2 4 0
2983 2 43.59047640709664 46.88829175561063 0.2801048826354011 3 -2 -2
2869 2 45.4401809380724 45.882587568734664 3.876001748123896 -3 -1 -5
905 2 47.23380756639967 46.91385142591223 1.1364501113796899 2 1 3
530 1 48.83652995514883 45.24996246982525 4.42263614015876 2 1 2
3984 2 47.75462701891027 49.193779215831356 4.593261857738945 -2 0 2
2411 2 4.4941217497470864 1.054246585107874 5.0049186391112235 -4 2 -2
831 2 3.3220918856852903 0.4198718597343719 8.172797632894719 3 1 0
1049 1 2.5479072832955465 4.1985760309667475 5.474742221101992 5 -4 1
3067 1 2.251487774873529 3.3241819946894946 9.08045143303056 4 1 2
3076 1 0.6731605972392803 1.6841097352531342 6.439040435488565 0 -2 4
1456 2 9.64370113680237 1.0767913664173374 8.617377379536496 3 0 2
677 1 6.4745351992918945 1.6572916929475516 7.884182349338911 3 4 -3
1640 1 8.772621647809425 3.477729383468905 7.385044502004046 -1 3 -1
1778 1 5.170353241780947 4.529802872133363 7.662406625489042 -2 3 2
1426 2 11.184652537328573 2.1585412376367237 5.59567299188055 0 -3 -2
412 2 13.63706661757086 3.774069971275619 7.99894522561383 0 4 0
1056 1 15.887705621821443 1.5175084993071064 5.833219466282414 4 3 -1
2133 1 18.703826570567287 4.3307745167559935 9.548131237548606 0 2 0
818 1 16.80301220030288 3.3690141766213464 7.710015534088581 -1 -4 1
1815 1 18.528355180078027 0.0024951092085631994 6.649856239804177 0 6 0
2108 1 21.463528932189313 2.1977367296599377 5.398940970335174 4 -1 -4
3789 1 20.343731444423764 3.026645715977527 7.710038279943026 1 -1 -3
1254 1 23.770309893216492 1.9527879848026468 7.909225089804717 -1 -4 1
115 1 20.080551539098238 0.10874791190948815 8.894747119110079 -6 2 1
1678 1 24.71937417940575 3.513848912491363 5.041548106360691 2 8 2
1201 1 26.951749578590963 2.7470591180069284 6.922603671354862 1 5 -2