LAMMPS data file via write_data, version 2 Aug 2023, timestep = 8000000, units = metal

1003 atoms
3 atom types

0 35.22820204664032 xlo xhi
0 35.22820204664032 ylo yhi
0 35.22820204664032 zlo zhi

Masses

1 22.98976928
2 14.0067
3 1.00784

Atoms # atomic

721 1 2.102137010928985 1.0325498108419389 0.740242701913738 0 1 2
936 1 3.1818223406598705 0.8755937990119107 4.540724837631272 2 1 -2
521 1 6.220744941320109 3.7022776954506 3.849688937695139 3 0 4
872 1 5.382902364178341 2.4717877160126496 1.053463853146699 -3 -4 -1
228 1 8.426879607983214 1.579668007138825 2.603981739715389 1 -1 2
744 1 13.005193261821644 1.404937961570755 4.655802011093988 3 -4 1
990 1 14.79804046726966 3.3411601947501186 2.927254617149431 1 1 4
685 1 11.678832553007425 1.6817460841850873 0.6385805384097352 -1 2 -1
786 1 18.46630932832605 3.989883636105619 2.4668526721100212 1 -1 2
216 1 16.298796623098355 1.0927566829293036 0.512474967985535 3 6 2
812 1 23.92741318604789 1.0087921460148002 2.7823216006587446 -2 3 -1
59 1 23.010192404416127 4.844611553749572 2.265438960839168 0 1 1
848 1 20.766380714145363 1.6636065067572066 3.990904929084101 -3 -3 5
62 1 26.330940135607207 3.4783184361361172 1.56221096965035 -2 0 3
815 1 29.21969717855901 1.1971308909519007 0.7782788128722161 -3 2 0
600 1 25.200496198984606 3.445421231345235 4.951727988802715 4 0 -1
531 1 28.0849833550705 1.6830147539542446 4.333629193409192 0 0 1
234 1 34.04958507928709 3.7091913849983427 0.44380855401261127 1 -2 -3
252 1 31.444641067911096 3.673463250619549 3.1408507497893425 2 0 1
69 1 32.4220955531541 0.2633210929854004 4.119166756335809 -1 6 6
326 1 34.69027351815459 2.739979448558761 4.456592102361429 2 -2 3
588 1 32.655056789216424 0.9205856656605594 0.37724598438768475 -2 -2 3
795 1 0.9281787712272344 6.376690439572255 2.4750199224382183 -6 1 2
277 1 2.5837678770291714 9.92153274274729 3.0323969806154434 3 1 5
622 1 3.761633990593289 6.131283808039382 4.793359606332 0 3 -3
43 1 3.380209294724217 5.213695740701718 0.9209821417110813 6 0 3
83 1 5.289289632445481 8.465703625785915 2.8017129624926054 -3 -3 8
836 1 7.76818939702354 6.321674144491064 1.8621967211700143 -2 3 2
90 1 8.914302823523634 9.736031086991002 2.3362949605676397 2 5 -3
1001 2 9.413714769049838 7.567084686219211 0.9017426720591164 2 1 0
176 1 10.99192766809482 5.993297799277791 1.6012877294928285 -2 0 3
574 1 11.008929090849533 8.888773193660194 0.026763896787415944 0 5 4
424 1 13.664622043758442 9.144046383462113 3.058291068634463 0 -2 -2
532 1 15.623928824591767 6.7406703264640395 1.8345530393880234 -3 2 1
724 1 17.41388054824295 10.044502233013167 2.712194566891245 3 0 0
564 1 21.18595953738916 7.582172707911525 3.155581823180717 3 -2 1
337 1 24.13883339363593 7.71649252302069 0.8637771118738289 0 3 -3
938 1 26.897999186306347 9.529719534359533 4.331870204225225 3 0 4
669 1 28.560633000901866 5.5182584569153255 4.34663615545689 0 0 4
508 1 30.060866574342324 5.182811592094103 0.20127713772080746 2 -3 -1
124 1 27.327556420387307 7.605537293188594 1.6391537166677201 0 2 2
835 1 31.006904265445822 7.700432017787736 3.388303550842471 -2 5 -3
886 1 33.611552760025695 9.69072800754687 2.529816236315582 3 0 0
459 1 2.425721867031242 13.800028958178368 0.6514856438007484 -3 2 -1
972 1 5.421096118766057 11.661142197527548 0.033491732461498745 3 -1 -1
281 1 8.947518057167663 14.740857493546173 3.648794572204581 -5 -3 -4
537 1 5.109203730278326 14.7030370277372 2.5642153755888755 -2 3 -4
308 1 11.392345118616548 11.906592122659196 1.36134475765079 -3 -1 -2
513 1 13.043297568743151 12.533508021574344 4.840052205788507 2 4 0
974 1 15.467949213877754 14.319179254305519 4.331960513866811 -3 -6 -1
705 1 18.74722940309663 12.859357863183718 4.238385052771568 1 -3 1
347 1 19.564567123273722 14.940056563786184 1.815740423070254 4 -3 -7
518 1 20.921395808773156 11.53802454672287 1.9831037450382043 -2 -2 -4
615 1 24.210044128740627 10.703414580120755 2.3475859562985932 -1 3 -4
493 1 25.10911537567939 14.659331920150327 0.45267495170470307 -5 -5 1
920 1 29.779806572066242 10.57637800938335 2.618491242765391 5 -1 -3
946 1 26.96976737565365 10.610849358989086 0.12280772996740083 8 -1 -2
954 1 27.300736871778543 12.976551270110063 3.1940299594002743 1 -2 0
392 1 35.16662536139417 12.565401977649895 2.79016171936537 -1 4 0
341 1 31.953525408652144 13.158860683836338 3.5399972944768208 -3 4 5
155 1 30.67135196056822 14.372910005271734 0.8693404048155869 -2 -3 -1
651 1 0.45336350360076305 15.851151609869586 3.222086496460153 1 -3 1
76 1 3.867336919108625 17.50681273903629 1.6126479209860443 -4 -2 3
14 1 2.134915842733578 19.422343687616802 4.343493318253755 -1 0 -2
636 1 7.370699032699778 17.491643713017687 1.8211457895371204 3 0 -5
646 1 14.980732376998832 15.382341114090643 1.264216471368247 1 1 -3
940 1 10.750356397785874 17.31500112735397 3.0433161006980822 3 0 -3
401 1 14.101196600265496 18.656860638411136 2.5241202764505317 2 -1 0
957 1 18.485614818329527 18.796602244999065 1.1940825469259235 -2 0 3
805 1 17.645306601575797 16.90755405798021 3.6195456979760907 5 2 7
878 1 19.719036738542385 20.08312204747565 3.8940057806220096 -2 1 -1
665 1 22.314191472098113 17.599954202402362 1.8616123152592179 2 -4 -1
226 1 25.319198959414482 16.174140496875836 4.138823977723782 -4 3 -4
675 1 26.8744870544621 19.64558361639501 2.2735665577546507 -2 0 0
814 1 29.27537924067527 15.84922733566306 4.95800344136862 1 2 2
332 1 28.20917290081201 16.820984456711624 0.01614033935111383 -1 4 -3
468 1 34.23759993121105 17.671496169254716 0.2770280328612443 -1 -4 0
852 1 30.564860376287513 18.744138157703862 2.5357956406114517 2 3 1
633 1 32.459189019815 16.513871115363802 2.288852711547752 -6 0 0
476 1 1.0059730832970712 20.49021644807916 0.9289122063066397 1 -5 -1
867 1 4.126378560804785 21.688100814094156 2.7762771531610837 -2 0 -2
545 1 2.392220050337961 23.88096259563273 1.8270828570074558 4 3 0
486 1 9.914598932777396 21.465007704692923 4.667938455358141 1 4 -2
391 1 7.225976894729842 21.68376738900389 0.5304838558479763 -2 0 -7
57 1 11.443329462706787 20.35952785424564 2.2466090248167983 3 -1 1
93 1 10.265289213490293 24.350264148497963 2.0405074352322035 -2 0 -4
569 1 14.131512239459871 22.130039095487902 2.9805606447339534 1 2 -1
942 1 15.858219936938813 21.158095810558578 0.34783161014285807 2 5 0
512 1 16.370279551849592 20.407758362886824 3.465169447248133 -1 2 4
189 1 19.246969495343574 23.38414183659709 2.2153156635727327 0 -5 -1
139 1 16.046096482075686 24.636151599935943 2.8499326054359337 -1 -3 2
49 1 21.742222286792682 21.54048501554446 0.9185662162405966 -1 3 0
524 1 24.20720502720326 20.67137924258319 4.016291134252718 0 2 0
749 1 22.052184544299593 24.31274210298735 3.6024248077711047 -4 -2 -2
11 1 25.072842325884945 22.993012973538807 0.04233005267199239 2 -3 5
147 1 21.91580025531259 24.819585159366223 0.3628980335678245 3 1 0
926 1 27.215992068011005 21.99277614016689 4.798255460843837 1 0 -1
717 1 28.922069581696707 22.095476143511803 2.188164641187407 0 -2 -3
774 1 33.243603532241615 20.379432886447905 4.113491407217398 2 0 -2
445 1 33.09679345164324 21.835989767198257 1.0448158340291027 2 -2 6
207 1 33.247113340962485 24.158421623002834 4.810129939518167 -7 -1 -3
840 1 3.9910649765658155 28.61640070904974 2.44187958148311 5 -3 2
4 1 1.5841061095712536 27.04651694129342 4.200711823530732 -1 -1 4
928 1 1.3029889171469216 27.841533557026786 0.11181850172420735 4 -3 4
881 1 6.812794420299018 25.242502993782956 2.6240298773729043 0 -3 1
21 1 8.517792056120827 27.68738220941882 0.8076106624784913 0 2 -1
266 1 11.414641537046093 27.344370302156456 3.656314578247711 0 -3 5
243 1 13.331111416097855 26.47175955384434 1.744823280552631 -1 0 1
288 1 13.273267640581082 29.5658840649077 1.1980570433107187 -1 2 4
387 1 16.744287460587554 29.105401902947513 2.6128445392795134 0 -2 4
666 1 16.454449228380348 27.19348252903272 0.11752354953593401 -4 4 3
851 1 20.190346711750742 27.305694941635533 2.1786794449951294 0 0 0
890 1 23.561022621585447 27.511644332665487 4.29423891672226 -1 -3 -3
624 1 21.75138421882077 29.643621760759277 4.814239510335515 0 4 -1
506 1 22.154622350072472 29.416757830999714 0.41439491574107096 0 0 4
408 1 25.251339286558878 25.367916864630654 2.5040680934033657 -2 0 1
950 1 25.310325057394394 29.80881834603306 3.0594167854497516 4 6 0
345 1 28.319299226268893 27.44690137081127 0.6962422797607851 4 0 0
639 1 29.63282670063111 25.977832763988058 3.3676980587068868 1 -2 2
738 1 28.437146374851554 29.958392817903995 3.5449536374187174 -5 -2 4
212 1 30.88540363962354 29.675495818951145 1.4741171703680194 5 1 3
361 1 33.75582197568661 29.057008550813894 3.3139470988546615 -4 -3 0
525 1 34.137935694811965 25.554221717696176 2.2507562411512723 -1 -1 1
929 1 4.866272603743875 34.11656864984444 0.5784410774092011 -2 -1 -3
453 1 2.080675874832288 32.35978607248046 1.8897374399924176 2 -3 -1
679 1 0.04620080361375418 35.09291893922942 2.628678494693031 -7 -1 -1
838 1 4.19235044901902 32.640291680821015 4.729453984064685 3 -4 -5
970 1 8.494084046878966 34.14847878891635 1.0128941356418926 3 -3 4
203 1 6.567037026051188 31.402530183222606 1.9927206259531467 2 -3 1
850 1 10.069388757939112 30.250744314796453 2.3314807885165965 0 4 2
519 1 11.665115890477855 33.22158419341414 1.9703667751276328 3 0 0
599 1 13.53556799888917 32.264014338900935 4.463004609232371 3 -1 -2
66 1 19.640555564045645 31.160422615565825 0.9172842688275883 1 -3 -5
798 1 15.74294506195884 32.71120843969354 0.8498429024613228 -1 -4 -2
661 1 19.217839242753097 34.210198161842975 2.4196439822557476 0 -2 4
693 1 16.227228625201427 35.1252326673982 4.528668584343462 0 1 -3
463 1 21.439200947747704 35.18771752182466 0.5420261041218533 -2 -6 2
489 1 22.22883075345126 32.40012721220411 2.940365829053953 0 0 3
119 1 27.29067095281385 31.750737455003062 0.03475615425146606 -3 1 0
170 1 26.719670413858683 34.656524148262825 3.065343687148888 1 -4 -1
210 1 29.803556695943385 32.70319069107452 3.1796869524690456 1 1 0
136 1 32.421299723685635 32.00457324462838 4.377865689088151 -2 2 4
333 1 33.586913810322606 32.541117342963155 1.4758896241522939 -1 -4 -2
173 1 0.8665333450722774 1.3793266298337992 6.916702011991488 0 -1 0
704 1 9.808209716406736 2.9554146827387355 6.566143164156613 0 0 3
283 1 6.1812322447923025 0.9258725715138132 5.596229446020672 -2 0 2
334 1 5.373756855969259 3.482333821519982 7.36914140638232 -2 8 0
495 1 8.899159689479982 3.026858865431354 9.704447003662127 3 4 1
41 1 14.821322310667668 3.820883636768533 6.980543579116146 3 0 -3
164 1 17.280331492095552 2.934637938573818 5.762922056310474 -1 2 3
151 1 19.115624724115353 0.39286232359698636 8.91669854636045 0 4 0
621 1 21.647692444723614 4.886315572313095 6.316277281146091 2 1 -3
925 1 22.041989483458067 0.6496285848285324 6.795670974302104 0 6 3
663 1 23.225294122980987 3.3149239833860036 9.134939534973748 2 0 1
144 1 27.590128619248446 3.8238169790522694 8.377303323316013 -2 2 3
432 1 25.998920521727715 0.9741965933549098 9.848308945608437 -1 0 -3
421 1 30.59327583268346 0.893487491529234 9.478869928379789 2 3 -1
546 1 31.447707016518798 4.224220403261913 6.730178621754334 2 6 -4
609 1 33.25142392370708 3.8679112809890746 9.950803539193531 5 5 1
631 1 0.633154753812467 5.237079562775966 7.424850139638787 -2 6 1
722 1 1.050198264367366 8.0365724124036 9.155916941977628 4 1 0
834 1 4.025027471783575 6.916726837156144 8.924316540255576 -3 -2 -2
629 1 2.9853521739279 10.04559960737373 6.8919163483645836 -3 -2 -4
127 1 7.248900149593915 9.394741305612062 6.051543044100407 4 -4 -2
219 1 7.806450639186445 6.179415573560357 5.390212158686874 3 0 -1
581 1 6.198790310068853 9.806127710197782 9.37038307263618 2 -1 4
67 1 7.473071338875316 6.602951609999189 9.40665577230092 -2 0 1
102 1 9.868775214439593 8.660191783068042 6.841585042584779 2 3 -1
152 1 12.18714278249216 5.4800827495746205 5.2192880274576465 -1 2 -5
338 1 14.482999643038438 8.102448200335436 6.351622566481128 0 -7 -5
932 1 11.432648484303165 5.064236846491572 8.480017030570426 6 -2 -1
494 1 17.513762615081994 6.378986522395707 5.081501979533392 1 5 -3
282 1 18.00032182728504 5.546448655961764 9.599597080490119 0 0 5
100 1 19.237484194013412 9.717801557034228 5.763003555497572 0 -3 4
809 1 15.318980279306553 8.639383838377507 9.541819318674442 -2 2 -1
251 1 20.467741219813774 7.605454562453083 8.478782420963523 3 2 1
462 1 24.008732129726592 6.653196803635226 8.029066410212689 2 4 0
330 1 24.252671589181464 7.984978653715549 5.387954471429593 -1 -1 4
698 1 27.033983325447128 7.10891831062059 7.062006461641939 -3 -4 4
435 1 29.09512803464561 9.766412944432545 9.531857264680779 -2 3 2
847 1 34.71724090025085 9.672215435435513 6.461347196200774 -5 -2 -2
889 1 33.61875083724817 6.1796286134890845 5.310053184150739 1 -4 -2
63 1 30.253227759280616 7.189816903650394 6.695781844905741 -2 2 -1
230 1 32.51453427001456 7.246655507046606 9.091347643441402 1 2 -4
964 1 4.3303352803315 12.981394734818926 9.944976520473192 4 1 3
547 1 1.1811205695423619 11.766314672319632 9.220158724067053 -1 1 1
781 1 2.824104101098194 13.439409579621367 5.307453988350084 7 -3 0
52 1 9.219430785820707 11.846141999732174 5.084329328384562 0 -1 6
409 1 6.58089512761329 13.82525131018683 6.207654139482952 3 0 -6
956 1 7.99185353709975 13.791157635001008 9.986915335020537 4 5 -1
827 1 12.561631557715547 10.869927495735638 8.294029312077193 2 4 5
630 1 10.392247690663003 13.84872310910695 7.466078449100746 0 0 -2
117 1 13.458411759639489 14.545617953195558 9.195864820218038 8 -4 2
671 1 15.89852775335589 11.795788845616046 7.43168602589473 -1 1 5
857 1 20.080261565458148 14.109168168825784 8.9642511192067 -3 -2 5
307 1 21.163100222724946 15.053491646050123 5.3182467164395515 4 1 -3
613 1 24.32411505475833 12.658305933240317 5.097741202030287 -1 1 0
509 1 22.63810649005739 10.666699531217596 9.26015787310843 -1 0 0
914 1 21.769381083393945 11.80364918276264 6.524912849635755 0 0 -1
993 1 23.858866380418785 14.247220195304886 8.278644438354899 0 4 -1
1003 3 26.06843257657372 11.653731655787968 5.545635148457438 3 -4 1
417 1 27.74102831663799 12.578593410078495 6.744763017143758 -3 2 5
880 1 25.86921661602082 10.085890940972794 8.346826834187283 -5 -2 7
761 1 26.407311802374526 13.554068852179947 9.891271891397809 -1 0 5
403 1 34.78696311849068 12.834880301521753 6.115503691425341 -2 -1 4
578 1 30.33120654621824 10.306418980809076 6.415125932863733 0 5 2
931 1 31.813860121713113 14.462295203729965 6.3511703030604405 -1 -1 3
593 1 32.24380658149517 10.72853087033561 8.816705762193182 1 -2 -1
327 1 33.49933776876282 13.509479386203992 9.23332146293747 0 1 2
895 1 4.197513183709511 17.23038228931971 5.980154418857757 -3 1 2
64 1 3.4812340433520617 17.65085953954301 9.271562476327556 2 1 3
280 1 0.4639497015381032 17.447299964063028 7.942635856930585 -2 1 4
670 1 8.18940938279663 17.06005908964583 6.180337447008565 3 0 2
398 1 6.526365807598732 19.339063997981494 9.532622167875049 5 3 4
747 1 13.288077289908282 16.38263187233159 5.79205282774623 4 -2 -1
589 1 12.173935012680163 18.085344208826672 9.338095312732191 -2 1 -2
324 1 14.866404958290756 19.088378862431842 7.249450453280696 5 0 5
755 1 16.457344308177486 15.233849578862374 7.3144628649627 4 0 2
505 1 19.294303026335566 17.53575179245357 6.598752141961091 -1 -1 3
810 1 23.410546324319377 18.15429993126709 6.503880858687259 -5 0 0
305 1 21.24031946879318 18.057348465827353 10.01156819933131 1 -1 1
201 1 25.54629736090451 17.134611954829687 9.837381920141482 0 0 0
948 1 28.46999487305594 15.675497344494737 8.223050362560615 0 1 2
181 1 27.649243874793225 19.312616832205865 7.530180448794819 1 0 0
839 1 32.414680147856565 17.732616478178493 6.139552829573221 -2 4 3
635 1 31.80976043472709 19.74452886385627 9.275014469394801 3 6 -1
535 1 32.88496504993 16.51907501691997 9.99522361879443 0 5 0
365 1 1.8216303857973275 23.42215035191105 5.716373082134608 1 -1 7
591 1 3.295356779990442 23.98038193984944 9.62774954007117 2 0 -5
427 1 3.4862163108703488 20.64291094645063 7.4760333439156845 0 1 -2
98 1 5.341973300658519 24.259447734025514 5.0817691602232795 6 2 -4
209 1 6.434262976031198 20.363315275197966 5.27321957673972 -4 -1 0
32 1 9.194173511930423 22.147018638265273 8.63785172515596 3 2 4
726 1 9.004898237748629 25.065510549848703 5.31397578628108 0 5 3
860 1 12.407189762763357 20.23013496012232 5.847279428191769 4 1 -2
429 1 11.1088269593798 24.41618132340916 9.84461223016649 -3 -2 5
214 1 13.601328358741128 21.73422824874431 9.56884702475857 3 1 -1
158 1 12.433069869260825 23.97744799058496 6.408211791038472 -4 1 6
683 1 15.690501361765248 22.515294082132087 6.714515326084499 2 0 -4
595 1 18.893449224213352 20.478159751087404 8.512704808812714 -1 4 6
482 1 19.01514587782411 22.70485595091231 5.960801182310654 -3 -1 -2
287 1 18.194004022337374 24.078767460387724 9.331476654620213 3 3 0
1 1 21.588340999770644 21.144140852873573 7.059845409583769 1 0 -6
543 1 24.181434124324 20.41289741654004 9.118708388334579 -1 5 4
145 1 24.503464785347454 24.285655701304243 5.788143930481811 0 -5 8
269 1 21.167759393856212 24.979651132735814 7.593795003962961 -2 2 -1
927 1 28.504382957352362 21.006524596044812 10.029876912198185 -1 0 -2
536 1 27.592090323690172 23.667045192105096 7.281501061186062 1 -4 1
37 1 25.229272809771718 24.759472326095782 9.388391302137615 -4 4 1
309 1 34.7819852711887 20.8818930395594 6.9113671923088695 -3 1 1
319 1 30.884630629744795 21.783926478626903 6.819395144287765 -2 -6 3
758 1 34.622591436086246 23.809955882986802 8.247226877394942 -7 -2 0
660 1 4.795014633831771 27.89937272135524 6.5988923380110505 0 -1 1
686 1 1.7590508108572713 26.187568839305197 7.327459811187705 -1 4 -2
413 1 1.4921830232211357 29.50277084563008 6.8114717533678935 -2 -2 2
779 1 8.225710375029754 29.066079947585518 5.2768565015340325 -3 -2 0
121 1 6.412341231641467 25.194811574732636 8.024655700001794 -1 -2 -7
223 1 11.368590112667807 30.041096835824497 5.887349987357448 0 -9 3
699 1 11.01845858666555 27.383969873661442 7.212754604876045 1 -3 -5
985 1 14.421459227512145 27.95495319942889 5.9994201547056205 6 0 -3
845 1 16.22541529739507 28.289549701593703 9.332014355244336 -6 3 2
575 1 17.379993322641358 26.137577550527418 5.772752473205984 -1 5 0
975 1 20.290029141886095 29.46688718677294 7.983545202936351 -3 -2 -3
133 1 24.108487948742866 28.410266025404717 9.030224758414514 4 -1 1
800 1 27.03834519746633 26.93876367353137 5.346328297823536 -3 1 2
649 1 26.541437544604847 29.662922005875362 7.716737276023612 5 2 -2
81 1 30.801180266395146 28.591064227598647 5.098500490287997 2 -2 -3
156 1 33.844715861752036 26.96366521558302 6.7789553266775 -1 2 4
841 1 30.386751304736443 25.818595276261725 8.090070609031207 -3 0 2
388 1 30.233650658964425 29.84003380559039 8.184017981809399 -2 -6 -2
921 1 4.416045994103548 30.721655088982544 8.390335420451484 -3 1 1
907 1 4.50236381325701 34.85117396131886 7.849824253666851 2 4 3
587 1 1.6617151208935756 32.91614141304113 8.47129758165665 -2 5 -4
650 1 8.102002200654471 32.180221962040115 5.280266915024349 1 1 7
765 1 8.264231222443088 34.87147697171694 8.009125799874614 5 4 -4
346 1 10.657047482014384 33.83295381044586 5.1648099797901255 2 3 2
854 1 11.628201850314994 34.4823361166203 8.130205378940325 -1 0 -1
563 1 14.742181559044276 30.92416260577826 8.696624937832226 4 -1 4
13 1 10.304807469427297 31.49777845592763 9.043465405207986 2 -3 1
20 1 15.689317834081166 35.12330117313135 8.852626089461335 -2 -1 4
378 1 17.897904750911962 30.268220392443137 5.903084060821412 0 -2 0
939 1 17.6803973427604 32.779549719680624 7.4499329816000825 -5 -3 -1
541 1 23.8076792807039 32.14155792556445 8.430055103946232 -4 0 2
586 1 20.452659827616053 33.30354932625421 5.42270251594912 -4 -1 -2
748 1 24.707948232825917 32.2365009841922 5.173760543315611 1 -1 5
80 1 25.953103055193935 35.003667967106814 6.938167802880721 0 2 0
38 1 29.64958937522887 33.18071304785361 6.706938852678851 1 -1 -3
995 1 28.00758235173274 32.65948532180162 9.405934819479022 -1 0 -2
745 1 34.96375760577075 33.72115009537005 5.394666087976225 -2 1 6
412 1 32.673863327998326 33.821838875703364 7.73782668633253 3 -1 3
771 1 33.82906158969929 30.785288997851463 8.658747400379461 -2 3 -3
803 1 2.160042395880901 3.494159602266522 10.16379280136846 -2 2 5
773 1 2.1136085878917923 3.5911124595894335 13.650271215000206 0 3 -1
132 1 1.1312411978089438 0.46174048708265897 13.920069543157082 3 4 -2
262 1 6.076661565201602 1.5317238035565275 10.830988971509287 0 2 -2
623 1 8.547804692503977 1.4476566519708725 13.684322491585338 4 -1 -2
614 1 11.451896482408888 2.073973386861427 11.74214672405754 0 -3 -6
516 1 14.857007245647043 2.775287165472187 10.119742381125306 -2 -5 -2
250 1 14.552962552272312 0.8561985558615901 13.319038145373948 -3 -2 0
585 1 11.531884558623654 1.6289907414746405 15.083191522595529 2 3 1
323 1 17.916669364461942 2.6636550021017222 12.026031257265972 0 4 1
194 1 22.332637857918105 1.027744023514926 11.393729619002519 0 -3 -1
808 1 23.139717103749387 4.565353013206775 13.560515776510577 0 -3 -3
759 1 21.683991421655517 1.5302622748951211 14.799720625299836 6 6 -4
150 1 28.87833824265272 2.281071983215213 12.279330855863911 -2 3 -2
768 1 25.773278935561436 1.7434297785359099 13.484229039112845 0 -1 -1
300 1 34.487198305097095 0.7153955245118917 10.445744061502023 5 5 -1
465 1 33.582697489254635 3.062993065509321 13.83452367142921 1 -4 0
770 1 1.4143811716021593 6.079177964241671 11.696312566516163 0 -1 -1
908 1 3.0711402334139017 9.569152189001258 11.253522520223958 -2 3 -3
728 1 4.710546595026446 5.260319238888386 12.338374831315791 3 -2 -4
45 1 2.359659594157693 7.546468456748881 14.418995624704522 -1 -3 3
306 1 7.679521572800337 5.469021076609849 13.142665347693319 -1 1 1
915 1 8.293629668859523 8.73065260660225 12.140523633809739 6 -5 2
374 1 5.175992244657453 7.290556050903295 15.029401833842357 -6 2 1
772 1 10.626570331231237 5.550422223632105 12.424530660307784 5 3 0
607 1 12.048519687629128 8.407560278482917 14.01440816588338 1 -3 -1
291 1 14.398785907978015 6.170669216180289 11.320920097416252 2 5 2
368 1 11.068480798747613 8.917806644701402 10.519734717046743 0 -2 1
29 1 16.409565826812585 5.085748837685912 13.454037674278878 7 0 0
983 1 18.124107838287255 8.968530294771705 11.21212612786173 -1 -5 0
904 1 15.518799649883062 9.296607114274844 14.03255218209892 5 -1 -3
449 1 20.15108284784205 5.336607109680592 12.239549471690768 3 -3 7
91 1 23.181017532474574 7.64467847121276 11.319939744976903 -4 2 3
426 1 22.201119301796435 9.519646738832005 14.279107521883228 -3 -1 1
310 1 29.46111791208792 6.437475612575647 10.117959712808124 -2 -1 0
31 1 26.121408846945446 5.110448273836247 11.65044898090838 1 -1 -6
342 1 26.035614010703164 7.902597827317824 13.938841207838754 2 4 -5
335 1 33.57067608851709 9.484976033115245 12.053903928142814 -7 0 1
697 1 30.85743719814878 9.189820789947586 13.679943942431493 0 2 -1
909 1 33.969801105971115 6.60400443500448 13.341754181389092 2 -1 -6
603 1 30.73864169614453 5.26329875666411 13.71428987164094 9 3 -3
858 1 1.9926908194342 11.893460442497762 13.254528988840978 -1 2 -1
372 1 6.050047520234101 11.05204678239328 12.575816713948047 5 -3 0
379 1 7.453725828048205 14.69913305817245 14.287283745918884 1 0 4
801 1 13.521933549042723 10.510913683115524 12.242505252164186 -3 -1 -1
410 1 11.041875467469302 12.946940949450351 11.380331753255243 -2 1 -1
559 1 14.082584060669397 13.41774867777561 14.895860987849899 4 1 0
766 1 16.744736777206658 12.3923464989045 10.363461849961135 -2 -5 -2
501 1 16.955818375785643 13.997771809401515 13.328819645842858 -3 -3 2
357 1 19.949573679380826 11.613758585500582 11.56760154633659 0 6 0
491 1 23.35505887804363 12.250617461611611 12.156321071973693 1 3 1
502 1 26.385886647707558 10.605509112887539 11.694678156523569 -1 2 -6
193 1 27.95080255110029 11.430604885685172 14.466654009850249 -3 2 4
500 1 30.003742466699464 13.18769720393503 10.233445097625356 2 0 3
716 1 27.184076844771386 14.846869497570738 12.729493373386362 3 0 -3
394 1 1.6932729263906063 15.228004840913343 10.59262860099219 5 7 -4
56 1 1.3746767553990402 15.323773345286273 13.775754490452066 -4 -1 -3
900 1 4.492063299044811 16.784277473653084 12.690382951245459 -3 -2 -2
196 1 0.7114950284817623 18.4785886973986 11.798611645035383 3 5 0
879 1 8.414842059304627 16.460954057458906 11.276363185346982 3 0 3
731 1 6.992030694651989 19.507164059675667 12.86434346346468 0 -1 1
213 1 12.198142955885292 16.161162029573447 12.235344114546317 5 -4 -3
118 1 13.560978198679756 19.20556373544266 12.605449638537557 -2 -12 -3
492 1 13.785900851798415 17.54756417766041 15.021259560546778 -2 3 -6
457 1 10.620087710045489 19.86052657479549 14.610615547137183 -5 -6 -1
709 1 15.875144056528269 19.72068571117314 10.557731561801752 1 2 1
652 1 17.959969328284373 16.989214379318874 11.084372757825484 -2 5 6
245 1 17.33684093879013 17.898430818726485 14.653114996667503 -3 -2 1
284 1 20.076131031916912 16.11710077467822 15.04525918072806 -3 1 8
241 1 22.514615727001445 15.35615475690262 12.111050372114502 6 0 3
641 1 21.035980497885966 18.83466671660023 13.754451204819087 5 1 -1
36 1 23.81526123416635 18.233975350900085 12.071352928762574 1 0 1
352 1 28.828822203446425 17.853442834827785 10.680978863742576 2 -2 0
727 1 28.679680441854593 17.3509741087513 14.477596009797429 -4 2 -2
484 1 26.234312034183816 19.174652929302308 14.049724848169255 3 1 -2
103 1 32.33205134990884 15.348618206126622 13.436804862636027 2 -1 1
27 1 33.02068607574806 19.453694414583737 13.367953934693565 -4 1 -1
116 1 3.6246644952917393 20.60724298194694 11.021310921351308 -6 3 -1
16 1 0.9235514715329648 23.17681334538279 12.254604482378177 3 3 -4
350 1 0.7185856922511702 21.253918282016834 14.824072426364117 -1 -8 2
292 1 4.354593560216902 20.46589985917094 14.695177177070555 0 -7 2
572 1 5.848000218673461 25.105090025877534 13.433154979370473 -3 -4 3
244 1 6.293415157557816 22.577025240724932 10.6302195918935 3 -7 3
806 1 9.937510998924418 20.16723625460098 11.2797998894383 -4 1 1
399 1 9.105078167314744 23.057653480963047 13.798883593627881 5 -3 -1
94 1 12.985300356999527 22.417503368505812 14.24188751772062 1 -3 0
740 1 16.168449365155862 23.48566201027855 11.910078312671192 4 3 -3
551 1 18.172671494850462 21.078310885800978 12.055632963360155 2 6 2
876 1 16.73072430025027 23.420854795018702 14.841222959764243 -4 -1 -4
796 1 20.243850519477682 23.487112846819404 13.565772507954705 2 3 2
963 1 22.229883992542582 21.42360527821702 11.737343628373603 -1 3 2
349 1 23.83580630302332 23.90791357403956 13.796271646873695 2 7 -2
883 1 30.118518418594423 20.347936441520904 12.26603248620122 2 -2 -2
632 1 26.439994423651427 23.249358247989445 11.804323894223886 -6 -1 5
961 1 29.438898799811014 23.784382366116265 14.21903084456968 2 -2 -2
664 1 35.00521250162662 20.955580641803966 10.301901475113704 -3 -2 -1
106 1 32.567232500063014 22.528855036744943 14.611024362801155 2 -1 -4
247 1 32.04870341261504 23.172411015523522 10.788743792037987 -4 -9 5
718 1 4.269075759586135 27.461977028803304 10.1073748778698 1 1 5
344 1 2.5674637958480253 28.278818099805914 13.976781720508 3 -2 -5
316 1 8.674438642440265 29.445506362713612 11.199180791090049 -4 -1 0
821 1 7.674845332919718 26.557510765173465 11.0465670866676 9 1 0
48 1 6.305867418209423 30.148821430884812 13.748688486025005 1 0 -6
522 1 8.315767662084525 26.78747633465158 14.359989205896683 0 -3 -3
648 1 12.814991233384426 29.386206121599724 10.74007583921417 0 -3 3
561 1 10.89637609349875 29.90314394354616 13.2122223711389 3 2 -4
782 1 11.726870044365164 26.48471996936884 13.293559566705383 6 0 0
2 1 15.366675652031253 27.00963707553792 12.499638839408078 1 0 2
538 1 16.543021335420253 30.118719835200103 11.848941954461816 -2 2 -2
471 1 19.256541059258005 26.690854583652843 11.503136586437083 4 2 -4
416 1 17.829643455748126 27.162747155565665 14.72507191817161 -2 0 -3
549 1 22.90365676448528 26.444924555326697 11.066834905444681 2 -7 0
224 1 22.037534487811392 27.1277538251689 14.50207153185275 -6 -3 1
628 1 24.963717005212224 28.19497971408143 12.639895701434149 -8 1 -1
891 1 27.99969005122023 26.814175917995772 10.511235439032001 -2 -3 -5
982 1 27.274589297626584 26.28406657367465 14.15083919145171 -4 -4 -1
205 1 28.63643113936888 29.704571880230006 12.522983794139996 0 4 0
951 1 31.691741762541255 29.240797503771827 11.24828206010765 6 -4 4
962 1 35.05421080280471 26.993737529204697 10.837573321639479 3 4 -2
497 1 31.63554400390608 26.291661515249462 13.398494258831798 -2 1 5
458 1 35.07596615235263 26.026171023869406 14.055501599056207 0 0 6
644 1 34.10615188679481 29.727422780649007 14.404322088360027 -8 -2 -1
373 1 3.4556325784634088 31.708116526533736 12.364306749066017 4 5 -3
174 1 1.797763331142359 30.253865969748418 10.600081287281187 4 -2 -1
787 1 2.8687786352583604 34.648836211193185 11.23923081753167 5 2 1
187 1 6.677984984698091 32.65841271444932 10.781047815067192 4 -2 -1
790 1 9.268574359727925 33.653266490661075 11.768752575820482 -2 -3 -1
751 1 6.276256332395549 33.97141891601045 13.890316614930974 0 -1 3
450 1 10.502993753555897 33.61732761698963 14.448576328286938 4 -3 0
264 1 13.179547424313586 32.8830052092981 11.490015237005425 -4 -2 3
263 1 14.003318979222685 32.501617471128526 14.847089156741092 1 2 -1
638 1 17.096882881661976 33.69119097840581 11.193893502676273 -1 -1 0
846 1 17.33732621722066 33.36528337796942 15.091028658649728 1 -7 3
285 1 19.491420145201033 30.557634154972625 14.004414850615865 0 -2 -1
452 1 19.213994619505026 34.59424851674529 13.336794609411399 1 -2 -1
10 1 21.129348968889406 32.4823629211042 10.14638052958553 -4 6 1
557 1 24.70016784469715 32.70654801082218 11.760955074259698 -4 -1 -2
354 1 24.69708961277386 31.24887221323727 14.65667585537426 4 1 -1
734 1 28.21103842935518 33.95850694082857 12.69648538295221 -1 -1 -1
112 1 30.74057139451183 32.60361498016334 10.21889177474562 -3 -1 6
991 1 31.703836523143913 35.016384776068705 12.69309083952971 -6 -3 0
55 1 34.419542212259124 32.894532532448025 11.987313678141238 -2 -1 -1