(written by ASE)

8000 atoms
2 atom types

0.0      62.266497048417691  xlo xhi
0.0      62.266497048417691  ylo yhi
0.0      62.266497048417691  zlo zhi

Atoms # atomic

     1   1      16.155999999999995      27.701499999999996      4.2085399999999993
     2   1      27.039399999999997      20.425199999999997      30.905199999999997
     3   1      19.209599999999995      9.1206599999999991      9.1512699999999985
     4   1      14.143599999999998      19.867899999999995      24.776899999999998
     5   1      2.8991199999999995      23.710399999999996      11.800699999999999
     6   1      5.0112099999999993      26.364199999999997      23.465599999999995
     7   1      4.9328599999999989      9.3380799999999979      3.9038899999999996
     8   1     0.11206499999999998      1.9715599999999998      31.080299999999998
     9   1      30.867999999999995      4.0705699999999991      18.495499999999996
    10   1      9.8213299999999979      7.9679199999999994      8.6951699999999974
    11   1      21.249299999999998      14.117099999999999      29.452399999999997
    12   1      18.635899999999996      12.124199999999998      14.626999999999999
    13   1      20.706699999999998      7.1189299999999989      2.7613599999999994
    14   1      27.036899999999996      18.410899999999998      20.316499999999998
    15   1      21.370899999999995      11.296699999999998      13.531099999999999
    16   1      1.8153899999999998      5.0480899999999993      3.5872499999999996
    17   1      28.341799999999996      16.016599999999997      17.473499999999998
    18   1      17.600099999999998      15.914899999999998       5.719949999999999
    19   1      7.8874199999999988      24.914899999999996      30.088099999999997
    20   1      7.3529399999999994      4.5981699999999988      1.8781599999999998
    21   1      3.0430999999999995      12.544899999999998      1.2651499999999998
    22   1      26.514799999999997      29.231799999999996      15.377099999999999
    23   1      10.360399999999998      29.463499999999996      17.465599999999995
    24   1      2.5293899999999994      21.265199999999997      20.183599999999995
    25   1      25.899199999999997      9.2168499999999991      8.4414499999999979
    26   1      28.497599999999995      9.7720099999999981      6.8620499999999991
    27   1      11.585799999999999      10.155499999999998      4.1835799999999992
    28   1      2.9158199999999996      29.421199999999995      11.754299999999999
    29   1      29.430099999999996      27.127099999999995      10.441699999999999
    30   1      8.4279099999999989      30.687299999999997      10.857499999999998
    31   1      2.8995999999999995      6.5450999999999988      27.091099999999997
    32   1      15.575999999999999      10.919699999999999      10.309199999999999
    33   1      26.795399999999997      10.789899999999998      22.787099999999995
    34   1      8.6338999999999988      2.8185299999999995      26.321799999999996
    35   1      8.1783799999999989      27.255599999999998      16.194399999999998
    36   1      7.6301299999999994      21.609699999999997      10.795599999999999
    37   1      25.879499999999997      8.0648599999999977      23.522799999999997
    38   1      3.4852599999999994      2.8349699999999998      30.012999999999998
    39   1      13.371299999999998      26.163699999999995      24.014799999999997
    40   1      22.183099999999996      21.776599999999995      6.1377699999999988
    41   1      6.4842899999999988      21.997299999999996      30.543399999999995
    42   1     0.31368099999999993      28.282999999999998      11.273099999999998
    43   1      30.990599999999997      7.7298999999999989      26.052699999999998
    44   1      21.533499999999997      18.903499999999998      20.449699999999996
    45   1      23.462899999999998      16.265899999999995      16.475699999999996
    46   1      7.2474899999999991      2.7933099999999995      11.543399999999998
    47   1      25.367699999999996      28.753699999999995      25.740899999999996
    48   1      12.914099999999998      29.882599999999996      14.340499999999999
    49   1      13.039999999999997      27.076899999999995      12.792799999999998
    50   1      14.188499999999998      27.238999999999997      15.536899999999997
    51   1      28.752099999999995      15.188299999999998      14.579799999999999
    52   1      2.6598199999999994      13.716999999999999      11.008999999999999
    53   1      21.701599999999996      10.442899999999998      16.026399999999995
    54   1      23.578299999999995      11.799299999999999      18.113499999999995
    55   1      22.155899999999995      25.714599999999997      24.849099999999996
    56   1      24.252199999999995      18.578099999999996      16.216199999999997
    57   1      1.2101399999999998      18.195799999999995      27.606199999999998
    58   1      5.5234199999999989      8.0848499999999976      25.661399999999997
    59   1      9.0642799999999983      1.7470099999999997      16.910099999999996
    60   1      13.470399999999998      29.728499999999997      17.629199999999997
    61   1      30.269099999999998      1.1156999999999997      2.8619899999999996
    62   1      25.715299999999996      10.974899999999998      20.146799999999995
    63   1      25.677199999999996      28.283699999999996      1.8830999999999998
    64   1      29.512399999999996      1.8977499999999998      16.350199999999997
    65   1      24.922999999999995      19.320399999999996      24.723499999999998
    66   1      28.562799999999996      17.384899999999995     0.10400299999999998
    67   1      14.089799999999999      9.9195799999999981      5.5380899999999995
    68   1      13.410599999999999      20.452599999999997      13.792999999999997
    69   1      17.851199999999995      18.428899999999995      14.258899999999999
    70   1      1.4364699999999997      27.198599999999995      17.871299999999998
    71   1      22.423499999999997      23.277999999999995      9.5121199999999977
    72   1      8.8873499999999979      29.765899999999995      2.4820999999999995
    73   1      8.9731299999999976      1.4355599999999997      12.930699999999998
    74   1      16.807899999999997      3.8692499999999996      7.6446299999999994
    75   1      24.583799999999997      19.832499999999996      19.274799999999995
    76   1      19.804399999999998      24.638499999999997      23.618099999999995
    77   1      24.558599999999995      2.8552999999999997       9.474199999999998
    78   1      29.513199999999998     0.20286199999999996       7.971099999999999
    79   1      9.9686199999999978      8.4818599999999975      2.1144099999999995
    80   1      19.312499999999996      6.5942599999999993      23.019299999999998
    81   1      19.617899999999995      24.558799999999998      29.600299999999997
    82   1      30.848399999999998      20.381099999999996      27.159099999999995
    83   1      21.881199999999996      18.901699999999998      26.817999999999998
    84   1      27.042699999999996      26.464599999999997      25.688799999999997
    85   1      26.953999999999997      14.983399999999998      6.1036699999999993
    86   1      5.7315799999999992      18.567899999999998      7.2590499999999993
    87   1      4.7167199999999987      30.934199999999997       5.668029999999999
    88   1      13.584199999999997      16.308299999999996      1.4363999999999997
    89   1      17.056799999999996      4.5566399999999989      19.361899999999995
    90   1      22.675199999999997      21.078899999999997      28.678299999999997
    91   1     0.37332599999999994      23.244399999999995      30.937799999999996
    92   1      13.177699999999998      22.213799999999996      26.758999999999997
    93   1     0.66743599999999992      10.497599999999998      19.620499999999996
    94   1      19.131899999999998      31.056099999999997      19.067299999999996
    95   1      10.661499999999998      10.637499999999998      10.809999999999999
    96   1      25.251399999999997      18.362699999999997     0.87842699999999985
    97   1     0.17401099999999997      23.281099999999995      14.731599999999998
    98   1      19.991299999999995      7.7478599999999993      29.241099999999996
    99   1      28.124499999999998      4.2460899999999988      2.8704799999999997
   100   1       6.211879999999999      19.159899999999997      10.199499999999999
   101   1      17.815899999999996      2.0248199999999996      29.084599999999995
   102   1      14.332399999999998      1.7775099999999997      18.389499999999998
   103   1      31.092699999999997      11.576999999999998      25.083199999999998
   104   1      4.3497099999999991      21.247299999999996      23.043699999999998
   105   1      26.516099999999998     0.56304199999999993      9.2981599999999975
   106   1      25.357899999999997      24.544299999999996      20.529999999999998
   107   1      8.9360799999999987      6.0429499999999994     0.52169699999999986
   108   1      30.619599999999995     0.88138099999999986      19.342799999999997
   109   1      14.635499999999999      8.5053999999999981      21.440399999999997
   110   1      22.916199999999996      27.327299999999997      19.058799999999998
   111   1      3.8094199999999994      29.567899999999998      25.378699999999995
   112   1      29.419499999999996      10.657899999999998      21.861399999999996
   113   1      27.961199999999998      28.566099999999995      8.3766099999999977
   114   1      17.328599999999998      21.557799999999997      14.019999999999998
   115   1      1.4832399999999997      29.509799999999995      8.9174499999999988
   116   1      30.406299999999998      19.628499999999995      30.474199999999996
   117   1      10.860099999999997      3.3257599999999994      19.260299999999997
   118   1      5.6173999999999991      1.8665199999999997      17.830699999999997
   119   1      14.632299999999999      26.160499999999995      6.0121899999999995
   120   1      5.8686299999999987      20.872599999999995      27.869399999999995
   121   1      10.070599999999999      14.191899999999999      28.104499999999998
   122   1      6.9474899999999993      29.547899999999995     0.60843499999999984
   123   1      25.578499999999995      2.8586999999999994      18.031499999999998
   124   1      23.272199999999998      14.273299999999999      13.815099999999997
   125   1      20.429899999999996      16.774799999999995      1.0412599999999999
   126   1      29.006299999999996      1.7682599999999997      10.311399999999999
   127   1      12.971099999999998      8.8035499999999978      8.5649999999999977
   128   1      7.0551899999999987      7.3264599999999991      2.8096999999999994
   129   1      2.0035599999999993      27.718199999999996      24.567499999999995
   130   1      22.386699999999998      15.341699999999998      11.457899999999999
   131   1      4.9444499999999989      21.890699999999995      18.793499999999998
   132   1      27.306499999999996      26.091799999999996      15.395999999999999
   133   1      21.414999999999996      17.997399999999995      23.620799999999996
   134   1      11.362699999999998      13.853299999999999      17.181499999999996
   135   1      5.8867499999999993      27.585999999999995      18.918999999999997
   136   1      16.243799999999997      10.544999999999998      0.6966659999999999
   137   1      1.2056299999999998      16.078599999999998      17.571499999999997
   138   1      5.7334999999999994      27.637499999999996      12.559399999999998
   139   1      27.571199999999997      12.572899999999999      14.021599999999998
   140   1      25.567599999999995      28.500399999999996       5.853159999999999
   141   1      9.6932099999999988      29.399699999999996      7.4966499999999989
   142   1      8.9792799999999975      26.567499999999995      13.301099999999998
   143   1      30.832899999999995      25.205699999999997       5.293709999999999
   144   1      26.962099999999996      23.872999999999998      30.856999999999996
   145   1      30.215099999999996      28.021499999999996      26.207799999999995
   146   1      12.742199999999999      12.835999999999999      2.2808399999999995
   147   1      28.579199999999997      16.084799999999998      21.545699999999997
   148   1      27.927799999999998      23.010199999999998      15.320099999999998
   149   1      20.178599999999996      24.705699999999997      4.1805099999999991
   150   1      24.352299999999996      13.373099999999999      9.0713999999999988
   151   1      16.413599999999995      30.576299999999996      13.426899999999998
   152   1      29.065599999999996      17.791699999999995      12.442399999999997
   153   1      26.322599999999998      21.708699999999997      28.408399999999997
   154   1      30.037199999999995      16.299199999999995      27.969499999999996
   155   1      26.156399999999998      2.9641999999999995      11.725999999999999
   156   1      21.142199999999995      22.184199999999997      30.395799999999998
   157   1      1.1568699999999998      30.190499999999997      29.736199999999997
   158   1      23.909699999999997      15.636999999999999      6.0403299999999991
   159   1      24.553199999999997      13.360299999999999      21.887299999999996
   160   1      30.142199999999995      26.104299999999995      13.107399999999998
   161   1      21.727999999999998      14.034599999999998      2.1805199999999996
   162   1      6.7095299999999991      7.8792299999999988      18.977099999999997
   163   1      25.959599999999995      27.510499999999997      20.306099999999997
   164   1      27.080099999999998      3.0757899999999996      5.2650399999999991
   165   1      2.8610799999999994      20.194199999999995      26.129899999999996
   166   1      25.522999999999996      23.484499999999997      10.626899999999997
   167   1      27.173899999999996      16.182999999999996      1.9106899999999998
   168   1      6.6453599999999993      7.4590299999999994     0.25195199999999995
   169   1      22.720699999999997      25.258899999999997      21.976299999999995
   170   1      17.848799999999997      10.086999999999998      17.220999999999997
   171   1      25.334999999999997      21.713099999999997      13.384899999999998
   172   1      7.0291399999999991      11.274499999999998      18.719699999999996
   173   1      30.013699999999996      30.543099999999995      13.119899999999998
   174   1      28.178899999999995      29.036699999999996      3.0167699999999997
   175   1      19.439599999999995      27.981599999999997      17.962199999999996
   176   1      18.544399999999996      20.067399999999996      1.5641199999999997
   177   1      15.942899999999998      12.084199999999997      15.611999999999998
   178   1      9.2302399999999984      30.878299999999996      29.305899999999998
   179   1      3.4566899999999996      27.058399999999995      20.908099999999997
   180   1      1.9790299999999998      2.4647399999999995      18.455599999999997
   181   1      10.895899999999997      1.8296799999999998      27.423999999999996
   182   1      1.8070899999999999      13.569099999999999      22.452599999999997
   183   1      28.624999999999996      1.6290099999999998      13.316799999999999
   184   1      23.406999999999996      16.200399999999995      22.611399999999996
   185   1      9.6130099999999974      30.965599999999995      26.240999999999996
   186   1      30.107199999999995      24.741599999999995      16.422199999999997
   187   1      17.310299999999998      12.521499999999998      2.7790099999999995
   188   1      7.1084899999999989      29.637499999999996      13.994499999999999
   189   1      16.115399999999998      30.371899999999997      19.197899999999997
   190   1      22.347299999999997      28.881799999999995      17.010999999999996
   191   1      18.833899999999996      12.897599999999999      5.4034699999999996
   192   1      13.065199999999999      2.0340899999999995      5.4560399999999989
   193   1      28.654999999999998      21.945399999999996      25.244699999999998
   194   1      19.362299999999998      18.499999999999996      4.5195999999999987
   195   1      27.403099999999995      4.9812299999999992      24.357099999999996
   196   1     0.91850199999999993      7.7463599999999992      29.703999999999997
   197   1      26.100799999999996      15.627099999999999      15.099399999999997
   198   1      5.4998699999999987      27.081299999999995      30.154399999999995
   199   1     0.80672399999999989      25.715399999999995      26.842299999999998
   200   1      10.455899999999998      20.588099999999997      26.883799999999997
   201   1      5.8605299999999989      18.693999999999996      23.161699999999996
   202   1      20.182099999999995      1.6619099999999998      13.166899999999998
   203   1      29.098199999999995      22.301999999999996      30.569699999999997
   204   1      11.184599999999998      29.612299999999998      27.606399999999997
   205   1      16.558599999999995      15.383899999999999      14.194999999999999
   206   1      30.344199999999997      27.386299999999995      15.425399999999998
   207   1      23.799299999999995      14.400899999999998      18.833099999999998
   208   1      30.049899999999997      5.2524499999999987      4.4447499999999991
   209   1      2.1123899999999995      4.2614899999999993      22.196699999999996
   210   1      1.3679699999999997     0.49399199999999993      5.9320299999999992
   211   1      4.1087899999999991      26.115899999999996      1.6374599999999997
   212   1      14.624299999999998      5.3061499999999988      6.2978599999999991
   213   1      3.4091299999999998     0.67875199999999991      24.238299999999995
   214   1      19.020299999999995      27.699199999999998      30.930899999999998
   215   1      2.5270199999999994      13.238199999999999      19.347899999999996
   216   1      22.008699999999997      3.4715799999999994      15.425899999999999
   217   1      12.182399999999998      27.284799999999997      3.7668199999999996
   218   1      19.875399999999996      20.246599999999997      13.391599999999999
   219   1      22.144499999999997      24.609299999999998       6.534209999999999
   220   1      9.3264499999999977      22.903099999999995      5.8785999999999987
   221   1      16.120499999999996      20.195899999999998      16.218199999999996
   222   1      17.725299999999997      13.514199999999999      17.349999999999998
   223   1      7.5849399999999987      10.969899999999999      21.985199999999995
   224   1      25.431999999999995      25.499099999999995      1.6000799999999997
   225   1      10.592199999999998      28.541299999999996      10.264899999999999
   226   1      18.364199999999997      10.459199999999997      11.828399999999998
   227   1      26.002499999999998      28.621999999999996      17.928499999999996
   228   1      3.9433599999999998      3.8705899999999995      16.246899999999997
   229   1      3.0229599999999994      24.682499999999997      20.631099999999996
   230   1      21.023599999999995      5.5855399999999991      21.125599999999995
   231   1      2.8574599999999997      23.162099999999995      6.7726999999999995
   232   1      29.418799999999997      12.888299999999997      6.0809399999999991
   233   1      30.514199999999995      10.078599999999998      9.4541599999999981
   234   1      11.690999999999999      6.5940899999999987      14.968499999999999
   235   1      29.045399999999997      25.549799999999998      27.740399999999998
   236   1      26.538999999999998      16.612199999999998      23.686699999999995
   237   1      30.123999999999995      6.5110599999999987      1.4918299999999998
   238   1     0.89434799999999992     0.41529899999999992      11.075099999999999
   239   1      25.762399999999996      28.980899999999995      30.707499999999996
   240   1      18.378499999999995      2.5757999999999996      4.8938499999999987
   241   1      14.108699999999999      6.0346899999999994      28.953699999999998
   242   1      28.552199999999996      2.8132899999999994     0.20772499999999997
   243   1      29.849699999999995      5.3085699999999987      30.175299999999996
   244   1      16.134999999999998      11.932699999999999      25.890799999999995
   245   1      16.096599999999995      1.6639999999999997      26.402499999999996
   246   1      24.955699999999997      24.656499999999998      13.581599999999998
   247   1      1.0870799999999998      23.010899999999996      18.100899999999996
   248   1      11.139099999999997      12.554799999999998      14.349099999999998
   249   1      1.7416799999999997      21.199999999999996      29.013099999999998
   250   1      27.894999999999996      23.313799999999997      18.875299999999996
   251   1      10.146999999999998      16.168899999999997      14.848899999999999
   252   1      6.1943199999999994      24.914899999999996      4.7243699999999995
   253   1      6.4353599999999993      18.331199999999995      17.207999999999995
   254   1      14.438499999999998      14.117699999999997      17.091399999999997
   255   1      10.466299999999999      23.508999999999997      10.795399999999999
   256   1      31.041699999999995      23.397399999999998      28.236299999999996
   257   1      7.4442399999999989      30.553899999999995       5.036459999999999
   258   1      29.341199999999997      30.883099999999995      29.688099999999995
   259   1      8.1055399999999977      5.4737599999999995      8.9969999999999981
   260   1      30.428899999999995      2.8996599999999995      21.952999999999996
   261   1      21.197399999999995      14.068199999999997      19.774199999999997
   262   1      2.9763699999999997      27.028999999999996      11.065899999999997
   263   1      27.882199999999997      5.5328299999999988      14.510199999999998
   264   1      7.8050599999999992      6.3092199999999989      26.126899999999996
   265   1      28.068899999999996      3.7931799999999996      16.909299999999998
   266   1      8.2453099999999981      10.133099999999999      3.8678999999999997
   267   1      20.244699999999998      10.326599999999997      25.038799999999995
   268   1      3.5485699999999993       9.238529999999999      1.1435099999999998
   269   1      18.203299999999995      12.052099999999998      8.9885999999999981
   270   1      23.743099999999995      9.4901799999999987       6.340609999999999
   271   1      31.084599999999995      4.2901699999999989      15.399499999999998
   272   1      17.585099999999997      9.9820499999999974      23.032299999999996
   273   1      7.3957099999999993      23.937299999999997      8.0064599999999988
   274   1      3.0889299999999995      18.849799999999995      22.772999999999996
   275   1      21.582099999999997      25.307199999999998     0.65424499999999985
   276   1      30.006899999999998      24.647399999999998      24.440199999999997
   277   1      24.162199999999995     0.44205399999999995      19.637599999999996
   278   1      26.832799999999995     0.33270499999999992      6.5180999999999987
   279   1      2.5892999999999997      24.630799999999997      9.1126699999999978
   280   1      6.5738499999999993      7.9756999999999989      28.145399999999995
   281   1      30.713199999999997      8.2228099999999991      20.969299999999997
   282   1      13.715499999999999      29.996599999999997      4.9471499999999988
   283   1      14.353299999999999      29.610699999999998      29.925899999999995
   284   1      25.206099999999996      25.046199999999995      18.012999999999998
   285   1      8.9457399999999989      25.726099999999995      9.8887199999999975
   286   1      7.6701699999999988      1.6539599999999999      28.360599999999998
   287   1      16.482499999999998      10.300499999999998       7.285099999999999
   288   1      6.4348099999999988      29.324999999999996       7.674199999999999
   289   1      16.779799999999998      9.9892899999999987      29.210599999999996
   290   1      20.377399999999998      21.812599999999996      20.287999999999997
   291   1      4.0178899999999995      28.713099999999997      9.3498399999999986
   292   1      2.6633799999999996      25.924099999999996      13.826799999999999
   293   1      29.048499999999997      8.9681799999999985      24.098499999999998
   294   1     0.68014499999999989     0.35951999999999995      24.422999999999995
   295   1      2.9363399999999995      2.2553599999999996      4.4138199999999994
   296   1      27.680599999999995      27.083099999999998     0.69452399999999992
   297   1      18.112199999999998      13.210999999999999      24.133899999999997
   298   1      22.113099999999996      20.935899999999997      17.764099999999996
   299   1      24.036099999999998      12.100099999999998      11.326299999999998
   300   1      3.5322099999999996      6.1565899999999987      30.606099999999998
   301   1      27.660499999999995      17.708099999999998      4.0628499999999992
   302   1      29.962499999999995      1.4322799999999998      5.4231999999999987
   303   1      24.488899999999997      25.164199999999997      5.0117499999999993
   304   1     0.79017199999999987      14.569399999999998      26.027999999999995
   305   1      10.320899999999998      3.6460899999999996      15.400099999999998
   306   1      24.342499999999998      21.016999999999996      8.2040799999999976
   307   1      28.405799999999996      9.4956399999999981      27.370799999999996
   308   1      4.8978899999999994      29.519099999999998      22.341299999999997
   309   1      12.349199999999998      18.592699999999997      26.041299999999996
   310   1      28.424099999999996      28.298099999999998      13.412999999999998
   311   1      13.166499999999997      27.794199999999996      28.719899999999996
   312   1     0.52962799999999988      27.124399999999998      2.8563399999999994
   313   1      12.832299999999998      5.9891499999999995      22.369899999999998
   314   1      14.749699999999999      14.316999999999998      3.2940699999999996
   315   1      10.967099999999999      5.5781099999999988      17.886999999999997
   316   1       6.501669999999999      25.146499999999996      15.607199999999999
   317   1      12.921099999999997      4.1405999999999992      31.032999999999998
   318   1      28.831299999999995      8.6038099999999975      30.392699999999998
   319   1      20.325599999999998      21.846099999999996      10.760999999999997
   320   1      19.859399999999997      13.550399999999998      12.431399999999998
   321   1      10.185399999999998      2.7771999999999997      9.2113399999999981
   322   1      17.467499999999998      25.206199999999995      3.8203999999999994
   323   1      6.9916399999999994      10.175999999999998      26.766599999999997
   324   1      0.8430979999999999      19.282299999999996      18.924599999999998
   325   1      1.0220199999999997      18.641199999999998      13.315199999999999
   326   1      1.5554899999999998      6.0037299999999991      14.246399999999998
   327   1      1.1549599999999998      1.5309899999999999      15.133999999999999
   328   1     0.36797999999999992      22.551099999999998      25.677599999999998
   329   1      2.5346199999999994      7.7721799999999988      5.2857399999999988
   330   1      3.9109199999999995      9.6713999999999984      22.031699999999997
   331   1      28.379299999999997      26.953099999999996      18.141499999999997
   332   1      2.2131799999999995      5.7092099999999988      17.601199999999995
   333   1      26.862299999999998      13.527899999999999      22.872699999999995
   334   1      3.0979599999999996     0.76283899999999993      8.8110799999999987
   335   1      28.537099999999995      30.274399999999996      10.759099999999998
   336   1      16.373499999999996      23.791299999999996      6.5160699999999991
   337   1      17.344699999999996      10.133599999999998      20.137299999999996
   338   1      13.784299999999998      5.5432799999999993      18.758899999999997
   339   1      1.7723099999999998      5.8260799999999993      9.5433899999999987
   340   1      24.843199999999996      22.271899999999995      31.042499999999997
   341   1      21.997799999999998      3.9983599999999995      7.3427099999999994
   342   1      22.317199999999996      11.927399999999999      26.225099999999998
   343   1      12.441799999999999      7.5913799999999991      19.996399999999998
   344   1      4.3892999999999995      4.3510199999999992      1.6335699999999997
   345   1      6.3630499999999994      1.7083799999999998      14.898899999999998
   346   1      21.447999999999997      20.612799999999996      8.7193899999999989
   347   1    0.049486799999999991      7.4338399999999991       7.586479999999999
   348   1      22.500999999999998      20.394199999999998      14.210499999999998
   349   1      20.472299999999997      11.519099999999998      3.3183799999999994
   350   1      14.408599999999998      10.669199999999998      3.2267199999999994
   351   1      13.105499999999997      7.9031299999999991      17.067299999999996
   352   1      26.360999999999997      21.487699999999997      21.473899999999997
   353   1      18.962099999999996      12.317399999999997      26.805099999999996
   354   1      23.548099999999998      9.1248599999999982      12.460999999999999
   355   1      13.536999999999999      11.769899999999998      16.139999999999997
   356   1      6.8987199999999991      10.453299999999999     0.66292699999999993
   357   1      15.558899999999998      7.9895199999999988      7.7230399999999992
   358   1      13.681699999999998      16.356699999999996      22.696099999999998
   359   1      13.199099999999998      28.149599999999996      10.268999999999998