LAMMPS data file via write_data, version 2 Aug 2023, timestep = 4000000, units = metal

1004 atoms
3 atom types

0 28.422298224662292 xlo xhi
0 28.422298224662292 ylo yhi
0 28.422298224662292 zlo zhi

Masses

1 6.94
2 14.0067
3 1.00784

Atoms # atomic

916 1 3.297588684066263 2.2045234037067867 1.1876387317728259 0 -2 -1
962 1 3.4041150725922797 4.128649758782183 3.7866207779132974 2 3 1
774 1 1.1784994852927186 1.5508058926206387 2.7265249120787134 1 3 -5
31 1 4.102092783943246 1.1872392973864463 4.463450735020876 2 0 -2
389 1 4.931412894878798 3.873147289548659 0.2336801927747656 3 2 -1
590 1 6.019075351552474 1.901493188186526 2.054035381432766 3 0 1
644 1 8.74107624610964 2.445997748965457 3.4358507617875578 0 0 1
589 1 8.08484254975443 3.8671933943438046 0.9904722433950022 -1 -2 3
734 1 8.647056782076254 0.823082108935662 0.7548997422365965 0 4 1
666 1 12.749590931678147 0.16463791510060233 3.820702700772399 -1 0 0
388 1 11.542717570596176 3.240229418264088 4.344871097116715 -4 -2 1
732 1 13.617493493408624 3.3388995939628567 2.4803385089066112 -1 0 1
456 1 11.242278939236908 1.1998200083773847 1.5419320337152054 -3 -1 -2
626 1 11.422200051510053 3.8049806837264035 0.8314560217327219 -1 1 0
154 1 18.45255479494637 0.5462594013460964 4.2577674860130985 2 -2 2
547 1 16.32096242489392 3.035646818348471 1.5396531090784389 0 0 -2
715 1 16.72501634141 2.8968791910055773 4.478703444721934 4 -3 1
980 1 18.566883878579926 1.2066048399910598 1.4184448969933845 -3 -1 0
905 1 14.980472318476087 0.928799249474164 2.365945302690989 -1 2 2
435 1 19.77019334243947 3.5040966661179778 3.8688736135995745 4 3 3
79 1 23.20686553352059 3.40767803321936 3.5404015537520395 2 0 2
941 1 20.57784129616393 3.122856022496866 0.6405521180426372 -1 -5 -1
308 1 21.69155440264457 1.1358194901026313 4.120427767762376 0 1 3
87 1 23.838740219826782 1.1813172411526949 1.4462212746494119 3 -3 -3
297 1 26.77565423813939 2.443133056418175 1.6779936586862807 -5 3 -1
141 1 25.953022337112508 0.8228483474524333 3.7471903260927824 -4 1 0
151 1 27.492460799509736 3.3419543905083264 4.279648345379889 -2 1 3
657 1 0.6130631962205783 4.810970098677575 2.3352452050437744 2 2 0
565 1 2.0257310879168213 7.891217128253339 0.5068358096922461 5 5 0
118 1 3.5115433510279748 5.499482908600161 1.699574513460332 4 4 0
347 1 4.497379862051056 7.929241666468759 2.436003659154892 0 3 0
761 1 1.8238101434049347 6.500990217604909 4.141730499957329 2 1 -1
544 1 3.075086045345011 8.91394785614742 4.665623916470928 0 -2 2
667 1 6.472881175004804 4.828309558092992 3.237589972388739 2 3 3
470 1 7.731832738242774 7.538538934825156 3.933415301339276 -6 1 1
334 1 6.38792385526171 6.557498674618172 1.2837986551447342 -2 1 5
585 1 9.045742298694162 8.332111841987262 1.251697965542317 -2 2 3
111 1 6.7063068562939625 9.27414965454234 0.8779940429975251 0 4 3
742 1 9.638151115706284 5.80217356140882 2.6659731606404113 1 -1 0
700 1 12.372531356465958 6.255132912768322 3.2231666793629072 -6 2 -2
782 1 11.913121023627664 7.326435117714669 0.42894009817665224 2 -1 0
617 1 11.702599191574429 9.433755116689083 2.5850261535918913 -1 0 0
842 1 14.465937703781103 4.909061406349542 0.31886179128487047 1 1 4
775 1 18.343605762830116 4.838718503973156 1.5193196619227478 0 -2 -4
227 1 15.296157201927187 9.029262461320014 0.8774989688304391 2 3 3
241 1 15.56295534046992 5.776235230382849 2.531480980497026 1 -2 -1
239 1 17.281427203124686 7.148762010154263 0.5966423027939168 -1 1 1
179 1 14.71270099129402 8.339007138767265 3.9806858369710154 -4 -4 -3
950 1 17.114015503555827 5.900370421957728 4.675038369001887 0 0 0
58 1 17.942931115848094 9.062125399210656 2.576121263256777 0 1 2
631 1 19.661433569558085 7.069223516019909 3.251537451159825 -3 3 0
621 1 21.60963561681287 6.062465561517743 1.514757743085603 1 6 -1
72 1 19.949313737715343 8.823112804298285 0.8593264694168872 3 -2 -1
360 1 21.368419639593178 9.223111336269701 3.9247252028862247 3 6 1
188 1 25.955400610410777 5.234051851862124 0.8100200316491645 -2 0 1
142 1 24.01013282778331 6.895806940384541 2.628000448171071 -3 1 0
172 1 28.175339777335584 8.265578028638227 2.9014647917659637 -1 -3 -3
333 1 25.677900758127223 8.342880530226479 1.2713566742415208 1 2 0
979 1 28.019069754735305 6.903771751927789 0.7071885825318618 -2 -1 -2
909 1 26.637788095165188 5.632426596470231 3.1772685508550165 -3 0 -5
180 1 3.1027133850570094 12.922688320082399 2.961092057809762 3 6 -2
772 1 1.7952322260812608 10.661406325738055 2.536213381040285 1 0 3
861 1 0.4997182531720131 13.700506267840172 4.6083684192121455 -4 -2 -1
88 1 3.6360064284986775 11.220334136742125 0.2773699443315885 1 -5 1
273 1 2.0190217798077517 13.543459599614675 0.0289071931634588 0 -3 -4
637 1 8.807464071664853 10.76978140193883 3.7136016528591647 4 -1 1
196 1 5.858218927907959 13.872044252643674 4.0530110715865195 2 0 3
977 1 5.427252784875117 10.723048177928455 3.1658133123141714 0 3 1
92 1 7.176359073346687 12.564434914150679 1.8856726223284668 2 3 2
759 1 4.765002669890864 13.64290743530186 0.7716456137608656 1 3 0
758 1 10.865236156432653 12.29558856455281 2.925553464598792 -1 -1 4
290 1 13.669526640014185 12.94566385519538 4.029172183279106 2 -6 1
839 1 13.948783069099992 11.618256623788934 1.1636810047305963 -2 1 6
57 1 10.399265414459958 10.774230042305483 0.725396719358481 0 -3 2
445 1 12.403646112202985 13.671101155003235 0.377279831081495 4 -1 1
211 1 17.191109134258628 13.740844620700477 0.9735406675919048 -1 1 3
664 1 16.633499862434157 11.570617499396393 2.620798040884769 2 -2 8
895 1 18.17436415479255 10.962602684374994 0.2202216561001126 0 5 -2
124 1 17.16978923409622 13.755458180156586 3.94080889655534 2 -1 0
748 1 22.75936177862654 9.501207898946085 1.853307110008462 -3 1 -2
36 1 19.594068930979546 11.788353889069011 2.605857394097569 0 0 2
115 1 21.934721304286953 11.892609846522113 0.6632865294034695 -1 2 0
702 1 21.76880064720156 12.491854548760159 3.791371355635474 1 3 -1
653 1 23.541235973435178 14.061058540941966 2.248640857495349 3 0 -3
260 1 19.851233424806935 13.917179357325704 0.08348767678466373 -5 -3 1
162 1 27.702522524100438 11.113766590204264 3.8243290259659326 -1 1 7
97 1 27.38901999114533 13.661602573076285 1.0588887856729203 -1 1 -4
21 1 25.088870624984356 11.85442302876507 1.6488778680606666 1 0 0
698 1 3.597941530436333 15.606397964225573 2.2654462361726173 -2 -3 1
84 1 0.6303200310575968 14.631818313419723 2.527300525941196 -1 1 -3
719 1 2.0194133198313673 17.36407466139573 0.7301102808532733 1 1 2
648 1 1.916547106778717 17.0089891039095 4.5045478882617624 -1 2 0
243 1 3.529296121603326 18.615771171138295 2.9148532329442176 1 -1 2
468 1 6.886335484917481 15.79019668403149 2.3420223312958934 1 0 1
608 1 7.394421998233595 17.930596892941978 4.04344135564431 2 2 2
997 1 9.463786651357944 14.539338896032133 0.7810333781562674 0 -5 0
474 1 7.848818039354897 18.446126865853675 0.4168072335594405 -2 -2 0
136 1 9.689506309266404 16.624664098430554 2.5567896506134082 1 -5 3
212 1 12.037655129889444 14.885045978329504 3.0056073709753965 2 4 2
174 1 12.724501172336092 16.406912815033333 0.7969911715855752 -2 0 0
792 1 13.766868536966411 17.77757260039846 3.2391610481172455 0 -3 -3
907 1 11.458248008799968 18.59202613119466 1.7346215721435174 -1 2 6
937 1 14.942968851640533 15.105445348949118 2.592273657057173 0 0 0
107 1 15.636796751001285 18.372479238542716 0.7953633244454396 -2 -3 -6
282 1 17.47404887731455 16.309889919209137 1.6605906163909567 2 0 2
625 1 16.68474924129916 18.518874221503744 4.08926967466994 1 0 3
428 1 19.206563350468 17.7349882315323 4.180081930785361 4 -3 2
834 1 20.30546328244264 15.877298919996374 1.6338953073796172 3 -1 0
22 1 22.31885704993518 16.636434379967064 4.015418920245511 -1 -2 -3
682 1 23.092585775037623 17.88709978513072 1.0884865030964292 -3 2 3
86 1 19.878708436758192 18.63120953738414 0.1121985223897261 -3 -2 1
204 1 19.65489615591193 14.632670851925496 4.144581020441217 -1 -1 2
30 1 25.179694866719462 14.973177069154884 0.019115449626678327 2 0 -4
156 1 28.357421836278803 17.538342362718375 2.8462262037546164 -3 -4 -4
561 1 26.389641313944455 14.561969906582508 3.658800743069194 0 -1 0
112 1 25.363368067825633 16.7248623391826 2.2586225608833406 4 2 -2
194 1 27.895802535447526 16.484918117186236 0.17557535028631296 -1 2 1
398 1 2.9570325044676924 21.492018431851566 3.0593391921029762 2 0 -2
959 1 0.7230720826051168 19.63916512724471 0.5695267091823988 1 1 -5
894 1 0.1114053919895035 20.539447687038415 3.2865328133363714 7 -1 1
516 1 2.863979999708612 21.889866574416704 0.04011954917171667 -3 -1 3
45 1 5.109113399307819 20.57994167072083 1.3936264587628637 -2 4 0
957 1 8.81417836576209 23.431431605070397 2.507638475766544 1 0 2
694 1 6.938726469579635 21.159813484396388 3.810358059525104 1 4 0
771 1 9.331720206897371 19.903133699236786 3.485473103135942 -2 0 1
408 1 8.472127615513282 21.142390615527813 0.22343058218509687 3 -2 4
132 1 11.607843011836133 21.918632237847078 2.896208853588728 1 1 1
94 1 13.688598306427739 20.5504281926638 1.7197416478602248 -2 0 -3
867 1 13.974707973384442 20.347006208122046 4.369309960373261 0 -1 -1
53 1 15.73661762019247 21.6325622483937 3.3392663703844887 -1 3 5
103 1 17.798261143037852 19.941724307248368 1.9001467219567547 0 1 0
794 1 18.62649057848386 22.761251818655595 3.092054154564221 1 4 7
49 1 16.137397476558654 21.45744228660991 0.25146668397783334 0 -2 1
645 1 19.250764238501333 22.06687824069509 0.466837442658745 0 -4 0
187 1 23.25310753427398 20.463818535666224 1.7062743587689555 -1 1 1
134 1 21.540776244069008 22.37721075660417 2.455768384836701 -2 1 -4
143 1 20.935341529756137 19.31192635205524 3.4237328638917943 2 -4 -1
233 1 23.491376732472816 23.131947409540167 0.4431213919096204 1 -1 1
277 1 24.07626233854716 21.628565411521958 4.527706469719923 -2 2 -1
825 1 27.886737427863395 23.339539696192887 4.285479690370082 0 -2 0
26 1 25.880476820244613 22.02331519567625 1.8231916287551673 2 1 2
345 1 25.920187726430058 19.091025720069716 1.8607729908547725 0 -1 1
110 1 28.417399996221032 22.904206760680896 1.3451747977373942 -4 1 -2
69 1 3.8752892543959025 27.78979771175061 2.0518218298656854 3 -3 1
170 1 0.6613880336105218 26.50934315718093 0.9835049740716765 0 0 4
789 1 3.007275313081041 24.556717914112525 1.4357950727575135 2 4 3
226 1 2.2705477963563974 27.210069520053846 4.437522516923676 2 -4 2
126 1 1.4452006243006692 24.576258128593544 4.0348101811550405 4 -3 3
471 1 5.609673295133628 24.048118653329905 2.1377348573763637 -1 3 0
654 1 5.153770910798083 26.502308581702334 4.308267308850948 0 -7 0
725 1 7.172278350031105 28.01739548869875 3.698441502553766 3 1 0
146 1 7.1453800371351734 26.088613377013825 1.6376957218553951 1 0 3
382 1 9.865010882864238 27.482705851914147 2.795132427863147 -4 -1 -2
580 1 11.285364392582192 24.62898395206458 3.844573927643214 -3 1 3
507 1 13.693133314600049 27.420710042190063 0.6852238832350754 -2 -1 0
263 1 13.278405309853868 23.72047523752113 1.507012705007461 -3 -1 -1
572 1 11.056191304624774 25.783965703910145 0.9281295447915715 -1 -3 6
930 1 16.593665177089527 24.542065791760198 0.7612377427254585 -1 2 2
785 1 16.007015893252046 27.74223954397438 4.600521794536857 -4 0 0
33 1 14.3597698058859 25.61328615044568 3.43638862215427 1 0 -1
786 1 16.632765397936904 24.524312691420274 4.4046468185888346 0 1 4
40 1 16.799062844963565 27.06571033548438 2.1693514504123015 3 0 -2
5 1 19.3273495874605 25.848141257717884 3.8067061535243014 3 0 1
815 1 22.390084587263523 25.174876014218423 4.004974637071016 -1 -1 1
178 1 20.723256686529805 28.194922471582597 1.654300629053361 -2 -3 2
540 1 23.05746884168519 26.48350146710882 0.7821697687515812 0 5 1
433 1 23.665312597703892 27.446028853649366 3.2317307797694634 -4 2 -5
744 1 20.037819458087853 25.21820988255519 0.9004797894722854 -2 4 2
670 1 26.15735567055115 27.870370420834575 0.9783606000518217 3 3 0
643 1 27.37592074162373 27.024706768992452 3.593592263060358 0 -1 -1
827 1 25.28638043930784 24.372044999437723 3.722804092008648 -6 0 -1
651 1 25.728887756807158 25.10656495633118 0.49466378692288626 0 0 4
168 1 3.0630094691020955 3.8355760753707586 6.5112916779672645 -1 2 -3
720 1 1.0637727511887076 1.1196328124399946 5.751114476748075 1 1 -2
423 1 2.642284848330844 1.4266568166164433 8.518831727583091 1 1 0
739 1 4.722919232045383 3.203825762188212 9.422810872444982 1 -5 3
615 1 0.27510693226648636 0.06519832446543775 9.076108227589545 1 1 0
908 1 7.4687433103622825 1.921460847328482 5.456035464617376 -1 -1 -1
529 1 5.792242229615372 3.904287258603699 6.362348736270216 0 1 0
451 1 9.234368243037943 2.6411156357602414 7.359431657812043 4 -2 -1
723 1 5.160639569071624 1.2295370902521567 7.287833569193304 1 1 1
278 1 7.198821384554549 1.5534690646838427 9.287004735248532 3 -2 -1
457 1 10.278836274662698 0.6028134024284468 5.223094496612386 0 2 -3
630 1 12.637039825727955 1.7684539444506526 6.698465353796956 0 -1 -2
407 1 13.680980363774417 3.816331701146778 8.424015510037902 -3 3 1
550 1 13.938660557409452 4.425588944245802 5.125725460383395 3 3 3
482 1 10.066858300689832 0.18564396380784345 8.331642283535595 0 1 -3
289 1 15.829337837422496 1.2994713792150536 7.25651894817418 -1 2 -1
453 1 16.050737437610838 4.02127763549518 7.291200618286268 1 3 4
242 1 18.743756465401777 3.281874990265591 6.957618219511032 2 8 0
93 1 17.915283915578165 1.0866394053606552 8.470128010895062 -1 4 1
641 1 17.60684547475302 3.4213836378694555 9.396998183406025 0 4 0
405 1 21.288832530928712 3.579712542655556 6.053829183723094 -1 1 2
496 1 23.613077892683666 2.625080089929023 7.980673101249313 0 -3 3
161 1 21.02867301918735 3.6124721573930443 8.890996864810486 0 3 -3
812 1 23.27277933958119 0.23610504861336026 6.288892346238697 0 5 4
47 1 20.992573996496617 0.5674568123712541 8.038058142281209 3 2 2
351 1 25.639495010225737 4.172865091147411 5.605038922447958 -1 0 -4
502 1 27.905856571148153 3.1092064285503698 7.884618688386407 -4 1 5
814 1 26.15603174424939 1.5494614683644392 6.423909196474037 3 1 1
416 1 25.882247074186385 0.17458428308694843 8.664617923675987 -2 -2 -4
15 1 2.290771898230438 7.516354901977223 6.965517614459711 1 2 2
678 1 4.621259119503048 6.5583400868300314 4.972518108935267 -1 1 4
673 1 0.16017153090935168 5.559792669438845 6.53663672419727 -1 -2 -1
891 1 2.2273659703762765 5.047469706173892 8.973215257653992 2 2 1
272 1 9.116563716312195 5.247953372517903 5.41366842616458 -2 2 -3
348 1 6.957374429913058 6.536265688603214 6.426095270198929 0 -3 -1
83 1 8.391950973191081 5.400005590856913 9.192046988706382 3 0 -4
144 1 4.978192545398418 8.782656934501462 7.099142436643287 0 2 0
82 1 5.032834566690429 6.103744110945802 8.619861661371745 -2 1 -2
399 1 7.222888361346245 8.000899920388207 9.302212426418643 -1 2 4
795 1 10.712175445620307 8.272305304591713 4.952816009025561 -1 -3 3
833 1 11.534829484240417 5.161442359643513 6.912402581493917 -4 -1 -2
562 1 13.109007388758151 7.245295257031924 5.838616196885698 -6 -3 3
44 1 14.132900893670616 6.2611649577190525 8.591826565077934 -1 2 -1
868 1 9.855145450128994 7.599481021923133 7.579219950741923 1 0 -1
61 1 12.155436969797995 8.898019662047885 8.741480491729353 2 -2 1
606 1 17.172727693642955 6.406697457131309 9.201586041953975 -1 -3 -6
928 1 18.44194050594536 8.442100431994245 8.138215778023714 -1 -4 -7
978 1 16.634163821542856 7.883566192000264 6.266189466683166 -1 -1 1
933 1 19.572003959249546 5.681345243624524 8.418275886261913 3 -1 1
56 1 21.180420447482692 8.957179830819518 7.698807281561505 7 1 0
254 1 20.154622611984713 6.363862554174924 6.134541853851219 -4 -1 -6
73 1 22.537271058080243 6.854097609931484 5.523196856993356 -5 1 5
371 1 22.452546942341804 6.00127634164083 8.361822831883815 -3 0 0
703 1 19.13056936385837 9.117733840297367 5.370123541536988 0 0 4
214 1 25.623497124762626 7.135192276021567 5.805898189216471 -5 -4 0
374 1 24.533788977082825 8.822589101768331 7.784778009296144 -1 4 2
603 1 26.823040752593016 8.13676411296512 8.288602003493997 -2 -3 0
568 1 27.71035570468626 5.617493797084771 9.414656701326642 -3 4 1
975 1 25.136930754696 5.473221911633274 8.13295496761211 -1 2 -1
109 1 0.7806914236186412 9.576111950231274 8.673831394866875 2 2 4
313 1 1.8007103384423555 11.43902641732948 5.531183599659097 2 0 0
197 1 3.73302424853896 10.744369335631907 8.499044225972014 1 2 0
956 1 2.417168211275932 13.236772939302053 8.386600354315252 -2 2 4
81 1 0.2987324790089632 11.99225188038852 7.649561244865648 -3 0 -1
318 1 8.277054514985272 12.680398816722377 6.705429020986648 0 3 0
339 1 8.179535815533761 9.67160908541432 6.434886791497028 6 1 0
796 1 5.44279156305094 11.270256719636805 5.820969780092712 5 2 2
754 1 5.52119346643314 13.650384335859238 7.315672602812316 2 1 3
995 1 9.352690106088964 11.242592586451934 9.445021467139744 -3 0 -1
279 1 6.436791105119811 11.24378789904133 8.785141681418327 2 0 1
219 1 13.642161687468704 10.634661346023595 4.833829909282778 4 -1 -3
968 1 11.294187763269937 10.40597958633777 6.777030790405363 2 1 1
464 1 13.733199349177022 12.090235728340584 7.361820536986499 -2 2 -3
25 1 12.012296735385902 12.657084531790547 8.99299989950542 -3 -1 1
684 1 16.62865725812972 10.316992904182426 5.276121989717545 2 3 2
50 1 15.073555210457169 9.513780620199272 7.863526347990769 2 -2 1
847 1 15.987968396307423 13.199600275034458 6.24640525574729 1 0 1
967 1 17.531643730276553 11.123442703081002 8.069946322196035 4 -1 -3
912 1 19.078454557243237 11.959862959736947 5.2658435488064 1 -2 2
809 1 21.19583457636028 14.003940517534447 6.525910940951899 -3 2 -1
285 1 23.345149828517556 11.280793260943407 6.467091897912085 -3 0 3
636 1 19.967431707765215 11.715959104952866 7.880192564224475 2 -2 2
851 1 25.277016998291547 12.548839133074356 4.7411136692062295 3 6 0
296 1 24.318557592004687 9.594581670836114 4.9126262242897045 0 5 4
448 1 28.245083507420283 9.588047982748119 5.691630397443816 4 0 1
841 1 27.0211134032551 13.690543528520013 6.146486765512912 -1 -4 7
361 1 25.911531823960804 11.086951008607144 7.3944109919001555 1 -2 2
11 1 24.25691846367752 12.875785460334953 9.106693874967428 6 1 1
665 1 2.6260988444334625 14.462309776928269 5.690753426552161 -2 -4 1
938 1 0.7214081707090001 15.584175643769596 7.03551242024058 0 5 3
89 1 4.053176571082137 16.854839250874242 6.966851695375292 4 -1 -2
222 1 3.9397715687542583 15.565749874492276 9.278887361755489 0 0 1
440 1 8.686750147861746 15.356493854431887 4.765575925646855 -2 -2 1
280 1 5.35277170636889 16.33186839328878 5.05210732066351 -5 -1 -2
327 1 6.896678321201924 16.592769125151648 7.07942562954668 0 -2 -4
778 1 10.818903717286947 17.35893796578135 5.332496783152553 0 0 -4
521 1 9.531755340201812 14.491753961867763 9.248646041694617 0 2 0
658 1 11.071622504321947 14.364075135117963 6.2138305056759195 3 -1 1
137 1 9.991624880753024 16.482817157988876 7.893540273396469 -2 -3 -2
616 1 13.0889661253965 17.717656253420788 6.845061458001059 0 0 -1
202 1 13.849273710890548 15.243403463349281 6.161334184150761 -3 -3 0
764 1 16.352483966113372 16.25280824468986 5.375968009447251 1 -3 1
291 1 18.561275117548902 14.52926716143906 6.711439757441296 -4 -2 0
29 1 17.732327528708385 17.556125327843517 7.449374521309739 0 -2 2
14 1 16.05173475445238 14.893726507745058 8.57781894940583 2 0 3
216 1 22.886522199389322 15.24923925641083 8.348961382151725 -1 2 -3
376 1 20.565186403218622 16.972791252260453 9.126660499780307 -2 3 -3
987 1 21.031520688571977 16.702124045034815 6.394829282392472 1 -2 -1
787 1 25.136764740185818 18.858140506660845 4.85773812193771 -2 0 -2
627 1 26.200871871906127 14.756401838521157 8.333503406101665 -4 4 -3
310 1 23.955894962637117 15.028746998818962 5.6407454439601 -3 3 0
493 1 27.38480339288337 16.56116389731316 5.323561114791352 -5 -2 -2
838 1 27.65796349608452 17.35417726092546 8.742839344537721 -4 -1 -1
499 1 24.473696118943145 17.38964054665324 7.319108178971635 -1 2 1
251 1 27.771577548424744 18.812082235455705 5.907593764878305 1 1 -1
538 1 2.2892564000249096 20.037680584541953 6.4236534884769085 2 2 1
258 1 4.067014957412527 22.581946511838076 5.84188751686848 0 3 5
454 1 1.3807780285231372 22.56736582177965 5.8265992552514945 3 0 -2
873 1 1.3138889397524236 22.866116729779407 8.820780430062145 2 1 1
576 1 3.043907635782088 20.644658985556696 8.881811399191298 -1 0 1
519 1 9.05351664518336 19.09117200258618 6.6351802441730685 -1 1 0
335 1 5.48873471026602 19.407363395084403 7.861125800854729 3 5 -1
443 1 5.286257732095533 22.46043744070963 8.502639200762125 0 -2 -1
736 1 4.9673983377682305 19.074112674400357 5.168098419334507 -1 -2 0
799 1 8.257844837657728 21.30009578209941 7.859806708603846 -2 -1 -2
818 1 7.213681482792185 23.21106634571375 5.250346614338038 -1 1 5
322 1 13.496712698129496 23.556225145347046 5.662592600852121 0 2 -1
397 1 9.869218832554013 22.679122451298614 5.782445906690345 5 3 1
947 1 11.703546490663376 19.89896609495955 5.8196129031928585 2 2 -2
984 1 10.95009763553244 19.429505336860696 8.479365883097913 -2 -5 2
910 1 13.561311933946872 21.569636122550683 7.9088419279431355 2 -1 -3
808 1 10.891938555251725 23.177353610378084 8.315507045893781 2 -2 -2
755 1 13.191084279867816 19.556414360164492 9.429695227329116 1 1 1
899 1 15.566948941699737 19.369235594528593 6.626575074748395 1 -6 2
583 1 18.355308650818326 20.99923837694928 5.571223835496872 -1 -4 -3
875 1 16.43527178234134 20.741300395036557 9.140497523136526 -1 3 0
166 1 15.48569620503828 22.078727492926586 6.425659709372304 -1 2 -1
114 1 21.86932307681911 19.519656538651706 8.673601720878484 0 -1 -1
311 1 19.704965687938717 19.508158522450934 6.989011850029435 -2 2 -3
511 1 18.97134230032463 22.072166862951377 8.300538060280251 -2 -1 0
810 1 22.614109434168842 19.359467772993032 5.569209137656442 -4 2 -1
201 1 22.000495383848953 23.219167897494525 7.560235404398379 -3 2 1
175 1 20.966267774443242 21.837702087993378 5.034550420922551 3 5 0
67 1 24.342079727016863 20.929256982276726 7.4269886344219485 -1 0 0
228 1 26.5311299676567 21.964858550000187 6.082254963426405 2 -2 3
605 1 26.431837756763482 23.216653664044962 9.125625989903213 -2 0 -2
650 1 27.89690788192266 20.28277075692251 8.516373731865247 -1 2 -2
139 1 0.1599861017650219 26.577897965496792 6.618700011072531 -4 0 0
152 1 3.2204290018637725 25.15143257501658 9.268092667619182 -3 0 2
859 1 2.8846256531973635 27.19447118752983 7.069113950901322 -3 1 0
412 1 8.661024897921823 25.639835186654256 4.775115387569371 -2 1 1
270 1 7.512710718663217 27.74596251078627 7.730462450879599 -1 -1 2
756 1 5.1750210840418625 25.529211090360523 6.986700867580839 1 0 -1
336 1 8.426167033625639 25.28037661174671 7.904458628160695 -1 1 3
828 1 4.801895375140598 27.47631157498005 9.016919977814226 0 -5 0
488 1 12.637615388479238 27.41429596009612 9.215747758475585 4 -3 -1
403 1 11.31082968566919 26.337337067335284 6.101984951725749 -3 -1 2
822 1 13.207861938876713 24.287298323282638 8.507958923647632 1 -2 5
790 1 14.982727187653397 25.62862103290466 6.576840246890508 -2 0 -1
483 1 17.446176292258162 23.91226755401424 6.618686763313929 0 2 0
593 1 17.670638588946183 26.567882437851633 6.801983657661 0 -2 0
298 1 15.9336020635063 24.051185354579992 8.888968179352272 0 2 4
924 1 15.956981124124823 27.201299994232098 9.18365180193348 -1 -3 -1
325 1 20.157304947427097 27.650866991645266 5.9191083768717885 2 2 -3
108 1 19.048457150740642 25.99977784812621 9.060323808758458 -2 0 4
295 1 19.891655981633697 24.526947825525415 5.90907129271148 0 0 1
475 1 22.053396554037583 26.374953504180493 7.167462635690351 -1 -1 -2
323 1 22.76010446055068 27.991463742842246 9.431825451721915 -1 1 1
893 1 21.610898374519397 24.97350256126973 9.413541240062434 0 0 -1
326 1 24.09286500183118 23.79632840265185 6.395083692588197 2 1 -2
581 1 27.12281467953753 24.664976792028614 6.411199608896022 2 2 1
543 1 25.296963213938277 26.46213030327968 5.884162005933023 0 -3 -4
520 1 25.19649903324242 25.449944283255753 8.408191568725194 -2 0 -1
767 1 0.34005045648434556 2.377760960052465 10.419998558600774 3 0 -2
679 1 1.0806567546420371 4.691653321340714 11.701390287265282 1 3 3
885 1 1.6593333274717295 0.5891052637179254 12.7473241869838 2 3 -3
554 1 3.7552246253098382 3.0716476829036683 13.042568852507568 4 4 -3
135 1 4.578852987178962 0.1033924826946517 11.899266264883119 -2 1 2
467 1 6.226960620553729 3.128462867267203 11.55800273791479 -1 2 -2
826 1 9.222655701791822 2.3333309572769654 12.0054760884182 1 0 2
982 1 6.717699504620722 1.6635802043185828 14.055006065709302 2 -1 0
676 1 11.457462846189078 2.4272017641427626 10.315569729307011 0 0 0
582 1 12.723151911107323 1.4963182108498452 12.958287197344143 -2 -2 3
383 1 11.018647616974611 4.343070744899495 12.807251458383398 1 1 1
506 1 14.855041638575234 1.6022803967240808 9.700158734063265 -3 2 6
691 1 15.953752933277235 2.1550999210231025 12.03148482431498 2 4 -2
567 1 17.833519724380803 0.4125353001367394 11.138387015415397 4 4 3
293 1 18.423684428094834 2.3374485414720207 13.005730653822294 1 1 3
41 1 22.87385309007049 2.503950362424165 11.169898781858338 0 0 2
588 1 19.650703913807895 4.5466293586656485 11.102395789518265 -4 1 1
476 1 20.30292831452704 2.017916529701644 10.845429131155779 1 -1 0
819 1 21.430351101692185 0.4040667995736984 13.423873268141577 -2 2 1
701 1 21.295691783337418 3.494329835863645 14.01412390203199 -3 0 4
255 1 25.701487294663462 3.2298026157284827 10.395614400386595 1 -3 0
877 1 23.91012733600552 0.27372445017570807 12.29196075163825 1 3 -2
402 1 24.42467312704123 2.9905666123743875 13.524897726496166 -1 -5 -2
229 1 27.0230664070777 2.3959131852183733 12.86044657313167 -2 2 2
633 1 0.7447771434784543 7.294177361323315 13.886015899352993 -1 1 1
377 1 1.6631602439622772 7.09919349548971 10.644583993618655 3 -2 -3
257 1 2.9708463102538603 8.804176819319418 12.899658037124333 0 0 2
906 1 4.485982182298498 8.224467831999336 10.207910512643918 2 0 -5
551 1 3.7055236123601425 5.644311852248506 12.147826696988476 0 -4 -1
672 1 5.616262988047046 8.160842171587865 13.193323577835383 1 0 1
931 1 7.775246964889821 5.961784835204064 11.776889675788192 0 0 -2
955 1 5.691580113462078 4.834145484968066 13.927769823354293 2 -1 -2
364 1 11.220956462937577 5.437057924449749 9.63977742121346 -1 -5 1
70 1 14.133061022507617 4.763382205262523 11.177299709110754 1 1 2
427 1 12.369502474433961 6.892158905390028 11.41685367001647 0 1 -2
481 1 9.957081445818229 7.141931001889521 13.363724997279183 -4 -2 -4
879 1 10.020042662178296 7.898528988736681 10.580520504921429 3 -2 -2
783 1 13.948585784563456 9.013549158015602 12.324067621539612 5 -2 -2
342 1 15.861245021357707 8.899204460673586 10.29407823223748 -3 -2 -1
292 1 16.92316571987314 5.2811716859857984 11.89520546537973 3 -3 4
623 1 15.650104809543029 7.252133238409632 13.09229790867166 3 1 4
309 1 18.088445790056507 8.091181159336514 11.66448194030831 1 2 -1
450 1 23.18283430684111 5.430485373267276 11.217096037536399 -2 -2 1
945 1 20.348237006799618 6.734088847757214 13.531982047482531 -2 2 1
437 1 20.97279025095751 7.660761884539941 10.445307257199037 2 -5 0
449 1 22.832935695149736 8.66648387289914 12.876276961156846 -1 2 -2
13 1 24.240209781240644 6.154850415882941 13.504069185053652 -4 2 1
330 1 24.942449129221217 7.726427416621913 10.707252163222982 -4 -3 1
612 1 26.45332738878935 5.736105133899545 12.232979348391803 0 2 1
749 1 27.59437847884957 8.542735905471682 12.225672116937089 -5 0 -4
876 1 25.740042142364317 9.391812018266771 13.791150444213296 6 0 5
577 1 2.1964275635834505 11.1193254606326 10.544344541265056 -3 6 -1
55 1 3.4087206649129342 12.03134468364064 13.424395477064962 1 -3 5
769 1 5.267552430318888 10.507990443160871 11.365729597219904 -1 1 -3
395 1 6.717649305771334 13.745369713875204 13.084106584069513 1 -2 -1
37 1 7.5993622911855585 9.62202681228872 11.441646821024346 -4 -1 -1
579 1 8.766112286456755 12.044518085961181 11.838073033071987 0 2 9
373 1 8.900955874976715 10.045698125467093 14.19929752984439 2 1 -1
65 1 6.182780221814568 10.677361554233206 14.192977776853912 3 -5 -4
878 1 4.885046215436307 13.196670542552601 10.898996793578817 1 -1 -2
294 1 11.233998640255006 10.372589201254215 11.368282595450966 -5 0 0
314 1 14.089188122912205 11.175172256416111 10.64697534211752 0 2 1
965 1 13.539361525331561 12.503295977147827 13.58979679995388 -2 0 -3
773 1 16.92022292881174 12.712075183645833 9.890777424497207 1 5 0
762 1 18.7976691678824 13.098709021132796 11.851371560768694 -3 0 2
914 1 16.605650210814012 10.885796499605581 12.419588684035793 4 -2 -2
837 1 19.07402555083503 10.544530038805773 10.46067739831515 -5 1 0
587 1 21.47707148493409 11.632425298410146 12.207574558702309 3 1 0
250 1 21.49480169092653 13.25783331660925 10.133163813237635 1 3 6
674 1 23.71255558120712 10.200750203856835 10.391508337322126 0 -3 0
604 1 26.588621856458065 10.951172699080296 10.130297909430299 -4 0 0
663 1 28.380163306873154 12.448409230624112 12.781465519578381 -2 1 2
369 1 27.615727257486007 13.374527210549443 10.117733973120195 4 2 6
198 1 25.40272477480033 12.63738807834018 12.131776156095091 -2 3 1
555 1 2.6308308569156713 14.632434619309219 12.210385615016124 7 1 3
949 1 2.549949840289404 17.854888335494397 10.155558343435219 3 -1 1
98 1 0.9744683382869207 15.46217489839266 9.626582453914803 -2 1 5
871 1 0.2073434820358218 16.67369979736173 11.955742563381031 -4 -1 -3
798 1 8.427739870037257 16.452125618931948 12.382753566704839 -2 1 -2
609 1 8.313073467380992 18.206406797722494 9.554607118882013 1 -2 1
948 1 6.787221163017704 15.177949417508218 10.11614966378539 -1 -3 1
766 1 5.294952759134131 18.254120140123767 11.086523237661057 -1 -2 4
77 1 5.057444197995303 15.978134266867773 12.426661656875444 0 4 1
101 1 10.430193182371362 14.809184350879933 11.5331825614857 -2 -1 -3
988 1 10.960495272041344 17.74734286894852 10.429438132491915 1 -3 3
238 1 12.501451667806188 15.649326166138003 9.50074863830824 2 2 -2
10 1 10.28296035557068 17.171327989172664 13.63319176081286 -1 3 1
494 1 12.414244963186594 16.112347522097995 12.977303679009596 -1 2 3
952 1 17.896637524843676 16.77937749813805 11.521146873549771 -1 1 -3