LAMMPS data file via write_data, version 2 Aug 2023, timestep = 107100000, units = metal

1002 atoms
2 atom types

0 28.422298224662292 xlo xhi
0 28.422298224662292 ylo yhi
0 28.422298224662292 zlo zhi

Masses

1 6.94
2 14.0067

Atoms # atomic

322 1 3.800662144054958 3.7179978188960248 2.206818290822811 13 -15 1
544 1 1.4258537884463582 1.5671601159700017 3.2935316660105514 -4 20 -14
78 1 1.8730144280668106 0.6316128434318339 0.712284132382639 -6 -15 -22
336 1 4.492940915797236 1.7047851864932686 4.6243310438455145 -9 -13 -2
477 1 7.516216609700052 0.1875768114685232 3.8149551130729553 5 -19 -9
888 1 8.541554872616917 3.5893067820863824 2.3443898847715468 -12 22 10
55 1 6.58057506347274 2.6058345583232403 1.4547490196559034 -22 -11 17
836 1 6.297998359572663 4.080360880714145 4.204154025384149 -18 -14 15
613 1 7.552345719101202 0.1890387223704123 1.2631278771089933 -3 11 -33
684 1 10.154569474653323 0.6374652246919618 3.769079306445489 7 -8 22
248 1 11.254192080974413 2.9882072297992734 2.843118798627664 8 14 5
940 1 10.069631450333759 1.796292163486042 0.9580834976053139 -1 4 24
485 1 12.95132368977695 3.386073835078066 0.8051929391784612 -9 3 9
706 1 13.906948792833683 4.6351321092614475 3.0652567831667072 -8 21 2
854 1 14.600007568454517 1.2609704777459025 2.629733261503605 -2 -2 14
589 1 17.58218648622828 1.2446288103635366 2.378735171350092 1 -12 -10
364 1 16.976187285656955 4.470193742637471 2.5044159824861456 20 -13 5
341 1 19.88676260223754 4.024873632890632 1.5390687186701861 19 19 2
943 1 21.61265140696168 3.457206802486547 4.303518475859424 5 14 -2
380 1 19.843714477496086 0.5761517529771812 1.2822658669044176 3 -3 -18
472 1 22.68216705165518 3.1375944114151135 0.3830532309163177 -7 6 -4
82 1 22.418685952636523 1.2878019185198994 2.7121770490991657 -35 -15 24
882 1 19.76876008894032 0.9848627130119821 4.554680413714768 -32 5 -6
312 1 24.293171086091977 4.298368901824232 2.565592274422085 -20 4 -1
70 1 26.826481054040645 4.186781562365185 3.408431386727691 7 1 -1
859 1 25.482505724420566 1.391757105887718 1.7274753165791887 1 -14 16
385 1 26.18392279829689 4.681983144305828 0.04561820038922512 13 -6 -6
877 1 25.26349197911487 1.78328520052918 4.692733804112698 0 14 9
62 1 27.957879458293267 2.3962631575043427 1.5610447894788042 -24 20 12
304 1 1.637263835836593 5.048252412581498 4.3437632804155 4 11 12
631 1 0.7904806070627435 4.996923797195066 1.643182380890373 -8 14 -1
130 1 3.5550210130431834 6.631688388353468 2.7626990179540543 -7 10 -3
586 1 1.3150277159235126 8.347633698726735 1.8276350180872305 -7 -6 -9
729 1 3.4043274895091145 8.847836919528756 0.07746838386336778 2 10 -17
524 1 0.4877649728460748 7.113696660546974 3.814110103651904 23 19 26
614 1 6.174728524779419 5.7136777052498 1.920844422397518 16 11 -4
105 1 8.609557484202051 6.507850321523496 2.716052026261675 7 -24 -4
663 1 8.947496890255934 8.963704513941428 0.8307803255661728 4 5 9
795 1 5.920571897334118 8.494620447439786 3.6765358308435294 -13 19 7
655 1 8.719559404785175 8.973500691668955 3.3301814552502935 24 6 7
646 1 6.287604532719218 8.956408345632013 0.5174311271043912 -10 -7 -1
326 1 11.092261677188889 5.450821785302245 1.6333818712734403 -15 17 -13
309 1 11.99150679845956 7.912120988777307 2.2085379369345572 -6 -23 -8
215 1 14.66073820124023 9.023062233587885 0.843355992856561 -8 4 6
697 1 14.489732380585043 6.125178691567096 0.7778405938101274 35 -14 -10
595 1 17.510901985448584 5.846677217261244 0.15158271230090037 -11 -9 6
874 1 16.912092646868594 8.171848584417312 2.135715151907803 10 5 26
391 1 14.804642677638876 7.525620667295525 3.802230232467197 -8 7 19
290 1 19.867975397382903 6.238425750063524 3.2211390934641124 30 13 -24
973 1 21.31932785776874 7.298839363888409 0.8975554812291356 -7 1 14
845 1 22.828158967095384 6.6475927380767015 3.8237463507762843 15 23 3
258 1 19.686741457041094 9.231844791141546 2.7532026981959166 -4 -44 6
85 1 26.721481569612425 6.687492686615305 1.7533738687525362 13 -15 15
296 1 24.283267256210422 7.150928898075752 1.5203372887709907 -13 -2 17
362 1 25.60224756503136 6.5106568060431025 4.614529239507887 -2 -4 9
361 1 2.366129334478374 11.770391135559493 1.2898579415958613 5 1 -2
665 1 0.8645047001824752 13.789815325371823 3.797509848322042 14 -9 21
805 1 3.39679487145009 9.95006072467295 2.940699243051238 19 15 1
339 1 3.6992392586554175 12.745624698742455 3.8635936495025227 14 -13 -10
220 1 0.18994683712248733 11.514922521324918 2.125338666633153 19 -28 0
316 1 0.36950825875646376 13.917294910605385 0.7879089685767201 6 5 -19
428 1 5.6291069623394305 11.560972822757718 1.6650205325168437 3 2 -24
398 1 9.283272664671781 12.777294132764945 3.9327239801750444 -14 3 -25
594 1 8.679481401452959 11.664271231796542 1.1506863487450356 -5 -5 12
767 1 7.00083134358655 10.821492851765182 4.649824427711963 -23 14 -1
511 1 11.141350633764738 14.051990007358041 1.6332820379776662 2 -16 -11
356 1 12.054198704983692 10.685202037942183 1.1826544704291975 16 0 -1
91 1 12.779631993934148 13.233205146778682 3.8163920293613884 12 -22 8
175 1 15.108765153875746 11.380773537026476 2.329404622787706 -2 -1 0
328 1 17.58028036191147 10.904480826150529 1.490812271876909 8 13 -17
514 1 16.08525597427931 12.863814725379921 4.494557582287509 -13 13 -8
626 1 15.28965995333574 13.981363309044658 1.5165238347415853 18 35 4
653 1 18.609742527213015 13.276564220935969 2.833904303524673 -31 13 -1
253 1 20.260419544518285 12.245867585100141 0.832845740142346 1 -21 -1
26 1 22.345940105822688 9.947752364100634 1.6782837322514441 9 24 19
455 1 21.58979165714642 11.898756933700088 3.635037491549221 -20 -2 -11
272 1 23.398805307796668 12.463720718283358 0.2832710138772784 14 -15 -17
340 1 24.205022849972362 9.565823034203362 3.6710035190401737 2 -5 -2
249 1 26.856854474188093 9.751219080872534 2.5473311231435356 3 10 -12
743 1 25.064968129810996 11.960536715880087 2.3056606223215614 -5 -3 5
395 1 2.8837596047422496 15.134971991258272 2.565837195568055 -27 10 14
107 1 2.258460497944962 17.128252806927783 0.9558878169069591 17 14 -20
608 1 3.3409817862192828 16.17729312543336 4.669283236209763 1 17 28
894 1 1.4485754757103964 18.401803767107822 3.811738500974226 13 -27 -15
598 1 8.080220382109365 15.008865458945841 2.4241550286499893 17 5 15
58 1 5.04422601626763 14.671255380228862 0.9728524120825134 -10 -13 19
852 1 5.800288550060145 14.435221511508205 3.3852801239114343 -14 -17 4
259 1 7.388296267273768 17.635744387204422 4.297842567581217 12 13 4
865 1 5.3467839515763425 17.536041667719573 2.1001114345189937 -2 -1 -5
234 1 8.241681796962688 18.369716416954173 1.752579842783583 1 9 -1
194 1 10.518539722001439 16.207396340734157 3.917636008123672 3 13 -14
465 1 11.064863545052114 17.265594766213987 0.9360269112913434 5 1 7
581 1 13.702348962178759 15.85397188111579 3.789589174670913 5 -2 11
133 1 13.623584800498378 15.915579414364112 0.9248714342756221 16 4 -1
95 1 13.89339317239837 18.40141885977869 2.523324930734644 9 0 -3
376 1 16.525329591329264 15.58349133670117 3.4300014389829916 11 -12 7
832 1 16.88192422942989 16.717288797771026 0.4223344167802999 10 6 3
314 1 16.767196359915154 18.504988159521528 3.5503614610428333 -28 8 -17
46 1 18.012854758154678 14.316187005361153 0.5522213353776976 -3 -2 23
953 1 18.949678138146187 16.882618737114473 2.7193241278456894 27 -13 12
282 1 20.627857048099802 15.333403219168732 1.399427873707504 -27 3 6
734 1 22.88047262557399 14.453743157289 2.3057299760568117 14 13 13
196 1 22.001648934003228 17.996082373869214 3.2869468496871592 2 -3 11
942 1 23.32709350395422 16.973879110990648 0.8821288525710375 -14 -17 -1
122 1 26.17914513721229 14.216484174130095 2.9656406502587167 -2 2 -9
535 1 24.267595401830373 16.20573536007508 4.183221639440185 -20 16 -7
483 1 28.146268481694744 16.22539269778108 2.0911256767721778 -15 -21 -7
617 1 25.52317398219347 17.440348152091232 2.3242469000905275 21 5 0
393 1 25.961103475917792 14.645128822286747 0.5116210724702858 -10 -1 -5
51 1 3.692517287694777 19.89311544105374 1.5596968602358963 -26 7 21
402 1 4.700775480943482 22.699724089393445 2.2334701101758148 3 -10 13
417 1 0.7945775590222419 21.964834382439346 2.916025020312801 -3 -14 10
397 1 3.5034924657782676 21.41160910872419 4.614398148625553 -5 8 12
886 1 6.011378757093523 20.20049898920731 3.2757940871062647 19 -7 3
242 1 6.237562770554269 20.449951950546176 0.6895687660980362 0 9 -22
901 1 8.425710413505225 21.063571429198817 3.2229077339754695 1 -6 6
317 1 7.512844873368713 23.292838708074555 0.44798635842778683 -28 -3 12
8 1 11.590486642634138 19.44493617327539 3.4978077907268132 -2 -1 2
759 1 12.227597290371625 19.11489564123621 0.08542064718439235 -13 -24 9
164 1 11.203190781272495 22.00501998745314 3.1642063970265513 16 9 11
786 1 13.023705123673 21.75367255651471 0.9851630949486794 9 -4 -16
517 1 9.762698050610629 21.185608268754102 0.29707286205615957 -1 4 -17
482 1 14.735611061284652 20.83421568989546 3.6852989980114934 21 8 12
404 1 17.84753435190239 22.495567402205555 2.735037935573219 11 5 3
853 1 16.014686808650474 20.741689228196375 0.8551184322021622 -23 3 2
250 1 18.381716481788462 19.293589771879507 1.407320753594498 -13 2 16
349 1 14.984085773172932 23.543874076294987 3.8017478784270513 -20 26 16
658 1 21.21647274697952 18.970209948949634 0.5093497009042489 -19 17 6
662 1 22.808182603311497 20.42415795206732 2.225451316207214 8 3 -9
193 1 20.60974654565965 21.931217735370602 0.8111349932534243 -17 10 -4
689 1 19.811795436613256 21.34266346585263 3.7493364318416127 -29 -28 6
668 1 22.82192224471832 22.688180197407153 3.8764780350729513 3 8 6
705 1 28.287886958032608 19.256660853020453 2.2665570359289373 -17 -5 20
143 1 24.94844465961323 19.323177455728445 3.795084164621885 -8 4 13
577 1 26.357756075873535 21.905549386026966 2.576411347702196 2 0 -10
716 1 24.529075957012815 23.485372043364467 1.2717718867495067 -8 3 -28
732 1 27.46830561823856 22.59629335934657 0.11955399998027999 8 -6 -14
718 1 25.310539004974405 20.031471421949234 0.6812782467336507 9 2 11
904 1 1.4368749175312425 24.082697172908688 0.9942976319624338 1 0 5
260 1 3.8982909632403033 25.19902533730651 3.450075803724197 -15 -11 -3
931 1 1.6489448383411618 26.716926450855592 2.74393609407255 -3 -11 -11
178 1 4.477666857254668 28.248507157901916 2.698057218945861 15 -6 17
695 1 2.468040856287165 26.368532890264472 0.06312543427106831 -14 -11 22
820 1 5.466936629833817 26.13273494238351 0.5751842747385217 4 -7 -25
615 1 8.861482500961017 23.985843694917303 3.0283857746859284 -8 -22 -5
667 1 6.847204298428117 25.824794214886616 3.6309675838442703 6 -6 10
673 1 12.723059668167378 28.32604716057078 0.9774057423972163 -24 5 27
727 1 9.82366878197968 26.523979610036932 2.6636315507877675 -16 19 1
629 1 12.632312685110005 27.957351778902254 4.067793143268892 0 -1 6
609 1 13.692522873997497 25.519303397250336 1.1484158046826323 5 15 8
456 1 11.863395957220456 25.04732822294806 3.7888167172341762 -41 -7 -4
403 1 10.83010937745053 24.423893556358724 0.3457604798456548 -24 -17 -11
620 1 10.21635470103755 27.648619393867687 0.45066186225004023 8 -2 -4
265 1 17.562526830850146 26.922007503736484 1.8137590002084159 -7 -7 -5
39 1 15.2323749730304 26.478624341748382 3.883826399394288 13 19 -7
869 1 17.58389049095386 24.735127809680765 4.2093080293122105 4 27 12
921 1 15.786894954773299 23.912661090304102 0.7546816767065685 6 5 -7
475 1 17.341966107205344 27.80166269878023 4.431293297201381 24 8 -14
981 1 19.640204286969496 24.604806046090456 1.3215926304530248 7 5 -5
866 1 20.201168921662987 26.59568631355026 4.146305544417116 -11 5 20
909 1 22.318251214538694 25.2802971584554 2.0811883523570742 -7 -1 8
779 1 28.206642630673944 27.56260104154855 0.9494103840165811 0 -2 -16
559 1 27.538682848188596 28.208396364437913 3.345448969735693 1 -5 5
534 1 24.024572529416197 27.465337689283785 3.6130871821785164 12 20 -2
281 1 24.824264662898642 26.729475593131504 0.9814772555284031 14 11 -8
996 1 27.230058071004677 24.969166156791047 2.3457546034932695 3 9 15
765 1 2.3553096810027294 2.943381181417223 5.94392916073167 15 -4 -9
938 1 1.1434950175417449 3.122273120061651 8.54471000458929 -13 -6 14
74 1 3.651940433443721 2.069890551040088 8.93058684116908 0 9 -1
770 1 5.66864189257282 2.710782045500019 7.213111766160292 13 0 7
324 1 7.844180254349011 4.2067978448355365 7.341893051729896 -3 -14 7
156 1 8.257319217428089 0.9401372705414339 7.0519818253997295 -3 5 -3
772 1 6.4068913376313885 4.467895195603055 9.388649391509462 -6 9 -22
73 1 9.615467729020738 2.081678637657026 9.200815086274124 -10 9 32
771 1 9.487672998172036 3.9282233138880605 5.2658869643148 -20 -11 9
419 1 11.802945365005607 3.623477268827538 8.13549643707151 -14 -5 -31
547 1 13.02621349493809 2.3548453534807634 5.660867736375094 -10 -3 -17
975 1 15.24495751307469 2.7814426579167413 7.800116149617844 10 1 -6
195 1 18.560748696668554 4.025252379662462 5.080685906573572 1 -5 16
368 1 15.827730568202101 2.546836837329508 4.833693338908444 4 24 -9
373 1 17.627709610741494 4.118376276298951 7.286561614744978 -18 0 0
179 1 17.296093654280288 1.045904969907406 6.762678169917222 8 -7 -4
292 1 14.79705332656573 0.2656208284551619 8.361908454881315 28 12 5
117 1 18.267304599102253 1.9913216208498805 9.104435096981474 3 -1 17
910 1 22.725040299198337 0.791698134450152 5.723895934321521 1 -5 -12
775 1 20.29119030313472 0.07108695769197126 7.4645505392480676 -12 -1 -1
506 1 23.1139489088742 4.677824307005936 6.578323462151843 -12 -13 -18
839 1 20.868850739863074 3.035048320115834 7.6691613104685254 -3 1 -9
434 1 28.16756533998954 2.330590189674846 5.358316453553755 7 -4 13
807 1 27.40412920830628 0.2522040733411726 6.730914108119942 5 -18 -6
604 1 25.780381261918258 2.8732344513699584 8.173977925890584 7 11 5
815 1 23.926246659668532 0.7483207272704829 8.09123084683905 -18 26 2
345 1 2.0000264148618183 6.248816060358048 7.486969191832557 -15 -11 -8
252 1 2.95322802043136 7.919574934774142 5.351588088521922 3 -18 -2
54 1 4.484538849108674 5.2670228508647 5.562907367280624 33 -15 6
200 1 4.864489701559132 7.157156495069115 8.587263612520633 -18 -29 2
439 1 6.994756176327096 6.48999567880717 5.352777062308221 -18 -12 -6
315 1 6.942126806326222 9.091266886947327 6.954325315473502 7 6 6
929 1 8.451410331273879 7.025430418413983 8.619098794617843 -4 6 -1
359 1 10.200191766504773 7.011334807844128 4.966027039967386 -1 11 7
800 1 12.466217722524872 5.365611241047525 5.230802723756028 -10 6 5
139 1 10.233656716199784 6.254355916777592 7.174720564390222 0 6 -8
546 1 13.241314804624047 8.2796025673934 7.133327783801261 23 -5 -13
666 1 9.496410857618525 9.370037879840602 6.652605227392525 5 28 0
459 1 14.472113288460678 5.548682939017147 7.228117319750741 2 -19 8
685 1 16.655776824629076 7.189908419447305 7.18770624718766 19 -4 6
682 1 16.66411002739149 5.5065044109733865 5.241756795814414 18 20 19
138 1 17.636774550711678 8.22923625968408 4.988943088634766 -6 -19 1
243 1 20.103077593083754 8.850509695762993 5.969277601031726 -2 -27 0
660 1 18.97429225660429 6.784805101112378 8.620904087105284 7 5 1
912 1 20.442913946580724 6.193920694646889 6.468968165130276 -9 0 -5
507 1 22.935422842356026 7.3844436376180065 6.413424848081849 -1 -10 -11
550 1 21.4362082675683 7.982569249090715 8.707083316532485 2 -13 -19
7 1 28.076476886234527 7.807473365542249 5.999862298011832 -5 2 -12
509 1 27.193666270651228 4.926717066944495 6.479551510296527 7 -1 29
331 1 25.220532883576276 6.251842439946454 7.965798532316609 23 -12 -15
538 1 25.58748268467925 8.93107102024514 7.300192399083265 -7 13 7
236 1 28.233029632619388 7.798921845575596 9.060133987927074 -19 -5 8
881 1 0.44223519086968655 10.062918941220369 4.843811619454272 -9 -8 16
389 1 2.259986653290744 10.012314289039127 7.563732621096756 12 10 -9
751 1 2.6785181989728932 12.824835610299566 6.076503515904502 2 -13 -7
781 1 3.2916324180995478 14.091462215761993 8.820559325569349 -9 0 9
680 1 4.802297775925746 10.399874605424595 6.671624043716387 23 -24 -21
337 1 6.050762712340359 13.008745714616357 6.538048804888715 4 -6 2
994 1 6.573534808330339 11.521108693299933 8.639088991060374 5 3 -2
1002 2 6.909817898529096 10.905779243387352 6.880667104590724 -3 -10 8
880 1 8.393384194172112 11.772394028328318 6.985018447356949 -23 3 -4
593 1 9.224609523889466 9.831442832924889 9.32075253137299 14 15 -12
674 1 11.798109598692756 9.68792051846953 4.959497820704037 29 -1 -7
757 1 12.244394050207436 10.532526964245069 8.076502358641973 9 15 -15
110 1 12.969708404546445 13.689781491122945 9.184729644571657 20 10 21
170 1 14.442630701773508 10.168963459372083 4.80280988997342 -13 -7 4
101 1 14.22895089153043 12.195496614607835 6.731760204509141 11 12 6
367 1 14.89227724914919 10.324404301212903 9.30454499574741 6 8 3
818 1 18.126564155904603 10.998079361462354 5.1477229612897535 -10 8 -6
937 1 17.29823323199816 13.31145396440868 7.193882972517202 -6 -2 6
287 1 16.233010670116997 9.88998114296745 7.276385850621494 16 -2 -4
710 1 18.923525564454614 9.851491329220503 8.139009858189612 17 4 -7
733 1 18.8057695966141 12.599028046749835 9.438998429326071 -6 26 -8
494 1 23.041079874122698 10.267055013715229 6.976288357562682 20 0 -5
692 1 23.213546367995097 14.067110926473077 7.334991062300179 -32 -14 0
672 1 20.744101976308297 12.236878801303671 6.785901208920722 -8 -3 -13
902 1 21.040416274962922 13.656181222930805 9.307396500722618 -17 -7 27
201 1 24.34381015960416 12.628492740562669 5.0089373124736944 10 10 -6
311 1 25.404051225524658 11.897210435765304 7.973960255855032 -9 6 -5
520 1 28.186054781342104 10.957878026744838 7.481748311588855 22 -4 13
522 1 26.751150761066206 11.73122610456675 4.80345779164987 -10 21 -24
279 1 28.21381056661135 13.480482990977334 6.451295391908977 3 24 2
985 1 1.1422792787625116 15.977866439338126 6.049880359411816 14 12 0
481 1 4.4518737414192024 15.05628182319343 6.3490556759944345 10 -17 7
355 1 3.305149481174338 16.706471235878997 8.181090247441091 -23 15 -8
43 1 0.059221071424326255 16.271215953106474 8.31069740547623 -10 23 3
519 1 3.483595589627095 18.679208832944784 6.0858006055925005 2 3 7
753 1 1.3472935933865842 18.754674945726386 7.922183323109738 1 -2 -19
399 1 5.894357314414436 17.187315388262125 7.425921103974503 -10 -7 -22
700 1 8.027821199159387 14.827744812431801 5.457250752898019 -17 4 -19
678 1 7.87329693596616 15.034861701645006 8.544563794415419 38 10 1
52 1 9.090418577893244 17.546936817791735 6.664752007186099 -23 -19 6
126 1 10.43841340385275 14.233344053280968 6.616786308569909 -9 -5 4
478 1 12.23160895882973 16.08179537954875 6.146907283057798 -17 -25 -8
440 1 13.705649511964674 17.155663802702495 8.614109004608697 7 0 8
948 1 10.592638381595384 15.324949263578368 9.01795427589033 35 -3 -8
444 1 10.367935448523438 18.790677450280892 8.424707107574033 -3 -3 -10
788 1 14.374526882522124 18.150797879586896 5.330452314663711 7 5 8
555 1 14.52535964513086 14.892169607416882 6.036320203004962 10 -2 14
964 1 17.045995227574057 17.65792330372763 6.599817717364147 6 -27 23
991 1 18.580302645721638 14.992644780725731 5.1687368663611135 6 -18 -6
928 1 16.405485594065333 15.214449836321517 8.460154865970178 -8 -32 -17
171 1 16.438424197817223 18.71491384601174 9.107600890518194 19 -2 9
266 1 21.18145903391392 15.38451761489205 4.795725040399675 -4 16 9
603 1 19.71771028107483 15.330378705492151 7.79660289932375 5 22 -24
596 1 22.79184269726316 16.812912850412015 6.740752482139945 12 -22 3
893 1 20.459000597739745 17.455141715835943 6.369813240019974 6 -8 -11
592 1 19.133505306439478 18.635654781386396 8.629064843085745 -26 8 -26
263 1 26.070231422358212 14.501416387363921 6.042380068477029 17 -1 9
978 1 27.34936851950621 16.213669602175052 5.193063416268157 -20 -11 -3
829 1 26.47026199274842 16.965126261504793 7.196416359844745 -3 -22 -29
1001 2 27.623683338996315 15.228802825542306 6.779328876670173 -4 -10 8
487 1 26.852278554492194 14.344198945747715 8.335722109580065 -8 23 -9
37 1 24.799432294183905 18.399293702291722 9.277173685310174 1 13 24
993 1 24.220039479003198 18.851866838993214 6.896428158252035 12 -17 -3
774 1 0.8625253255095942 21.38033925688107 5.76670242079569 -5 -9 1
491 1 4.322593324729188 22.47074135932539 7.669972851667236 6 -5 1
227 1 4.511585520125836 19.77372847520936 9.118277941710307 10 33 -19
825 1 1.648697684839862 22.411410712644557 7.736783580687779 31 26 -4
142 1 9.246236224119748 20.31133190744098 5.398046295741578 -5 1 -17
20 1 6.344689603307798 23.012224047593975 5.228608253931192 -10 15 -10
244 1 6.252738483781369 20.004375338421642 5.951904722958996 -36 0 22
297 1 7.256864774237669 22.50839705029397 7.6859594731535585 -5 -2 5
510 1 7.714314299820727 19.75783993296796 8.001589817308673 -31 -7 -2
841 1 10.68946386618062 21.649197970394848 7.652253795350057 14 -7 20
675 1 11.824584515721835 19.530236254925963 6.342433599247976 17 -26 -23
513 1 13.045321131534614 23.213655525661405 8.662548113079001 5 -24 -9
602 1 12.958716770706392 22.30921929885184 5.4647428043925235 -11 -15 1
785 1 9.672128708593664 23.553625211292356 9.136579341345984 2 8 -5
720 1 17.27071069675538 21.16769588680952 5.653191506297779 -10 -5 -12
189 1 14.233089896007327 20.6517852878845 7.443661789690822 15 6 1
188 1 18.532837464579007 23.41210231030117 6.720330167749322 -2 -8 -6
573 1 17.73671802906736 21.488724203117023 8.468225177629062 2 6 -4
529 1 22.090857944306673 19.90806366023951 5.077090122616236 -9 -4 -5
219 1 19.035023895354815 19.26286831278787 5.594073656049261 -5 1 4
30 1 21.837358253975644 19.42026973877206 8.26280400629753 14 4 -6
971 1 20.571882919948248 21.434595858022167 7.702305097307046 -10 5 -2
146 1 22.81879648395987 22.530415432819566 7.361225688303998 16 -4 -25
587 1 20.471866909492505 23.60158296227656 5.308762251233143 -20 -15 14
878 1 25.32799143877467 21.406780767481308 6.032019519297809 14 -9 -12
36 1 27.22476987757553 19.27496891593383 5.626762026315702 12 19 9
22 1 27.16306101350613 19.86791528228664 8.07572802621926 -3 -11 -17
245 1 27.621793278667763 23.160656870491827 7.3673985813853395 21 9 8
919 1 0.5783459859844206 24.008594480313228 5.131399954593075 -13 4 -3
862 1 3.165853158838885 25.15135013841996 9.079176051697518 -10 -2 -2
802 1 3.335825309639718 27.572308231881983 5.889626824876522 26 -10 -33
694 1 1.591183334264279 27.898149732567845 8.239226069286195 1 9 -2
619 1 2.594191074885908 24.753903395188726 6.482981043359423 -8 16 1
582 1 0.4542810356768342 24.845299730429325 9.03922406677165 6 -33 12
97 1 5.001154650098466 27.745444695089997 8.835326055026037 9 8 14
864 1 8.691722564147376 26.294012893116008 5.385226557428925 27 -9 -1
165 1 5.77828669719606 27.704092512506364 5.3112172210242115 -3 -7 14
879 1 5.517707846478103 25.54682427753654 6.73901391258209 11 -3 39
357 1 8.3680666090479 26.939576478789736 8.113833882364236 -11 -8 7
946 1 9.989702416288724 23.811734394806308 5.487233400851895 -3 -18 6
824 1 11.391638572678026 25.519224032437688 8.222609521704475 -25 -7 -5
905 1 11.56930767303736 28.33911774941474 6.787680710583622 1 -9 -16
574 1 13.611384197517127 25.464020864809285 6.522604596676902 2 5 -30
516 1 18.40454988864426 26.177660808242415 6.308638141226935 -3 1 3
686 1 15.691755052501946 23.69435098092953 6.740133532132057 -17 -1 -5
147 1 14.580905653130262 28.220076581332123 5.798196569795986 -7 14 5
301 1 17.658948849194143 24.633282296481344 9.0205580068204 9 -9 -14
154 1 16.008840472505362 26.415819458280527 6.712785517194722 11 -5 27
80 1 21.095940092858843 25.404879168941463 8.463764873152284 4 -11 4
714 1 22.50361628480436 26.216919826177243 6.102586343291358 -16 11 15
180 1 26.013242422634306 24.844159554305193 5.0268056763989035 19 -19 -2
453 1 25.363353249811205 27.431062230276503 6.295117071999459 -15 -2 -6
56 1 28.130181986001983 26.312985955645456 5.375413483369299 -5 -5 1
816 1 24.66704226963027 24.508918574839253 7.572276030902331 4 -8 3
275 1 26.583736091658047 26.69278313931588 8.852752580269765 -1 22 -7
526 1 2.1328873320922166 1.024380353831866 11.376646337109547 -21 -4 -24
972 1 3.5112711962726793 3.930702606492839 11.404212789458263 2 7 10
410 1 0.9334775563692854 3.34780471461545 12.189440895911323 -47 8 3
632 1 0.9288106151659035 0.5452723178137752 13.907851081454721 3 2 -15
228 1 6.687770375874644 1.9734401919633942 9.98789738458042 -19 -1 -12
366 1 5.056772903435697 0.3238940901137898 12.982358803742803 14 11 -3
18 1 9.041589034268005 4.161476812525799 10.695479142217385 -20 16 -11
536 1 8.480025798080945 1.4149510879916214 11.919415904765446 5 -1 -20
652 1 6.536282182169854 2.841089443697607 13.40620039919942 -6 2 28
838 1 13.265252624868314 1.668002803024066 10.24795695791957 12 -2 -3
749 1 11.20673589808692 3.782131864636164 11.917979003926995 7 1 2
486 1 13.484328792089531 4.211889001864268 10.832619159187054 22 26 -9
64 1 9.667016064191067 2.001811666576302 13.943536275177918 18 2 -5
769 1 11.067091721876443 0.2695612038257717 11.637054083910774 -14 1 -30
554 1 13.353234464842238 1.5546245961644167 13.425380915402224 -10 17 5
891 1 15.769903571893861 2.4486512620331884 10.595847040704104 -12 -31 -4
10 1 15.270124304657786 0.24042787045433656 11.475437620385405 4 -20 20
17 1 16.006623586549104 3.0136261419172112 13.261902335267484 5 -9 -6
1 1 18.632727720592 0.9529429386394707 12.581968642902659 -2 12 1
823 1 18.29722774788926 3.9609540178893643 11.216640974052114 8 -2 -3
703 1 20.70792544065073 0.6089874201615465 10.34721239938747 -12 -6 -8
114 1 21.17107680774501 3.3316029229722144 11.525417500407295 -12 7 -9
382 1 22.972911167653354 0.08092866283322664 12.280301304515648 3 -3 3
502 1 23.72263191802659 3.862204671240488 12.794407401925701 -4 9 4
773 1 27.481734909206295 0.6545150954798752 9.961044949858964 10 -4 6
898 1 23.703234215635007 2.2641063972930557 10.369178240541837 7 0 7
970 1 26.065594824136742 0.2512257092677217 11.969754691645907 4 -4 -1
986 1 26.179910519334687 3.4617744828162333 13.38921193333504 -7 11 6
306 1 27.450049761352123 4.716612942594663 10.235233618899711 33 -11 23
699 1 24.870752646233967 0.7308222106203024 14.110903319466253 0 8 -34
320 1 2.3934411413694363 8.708697688906145 10.36164065147327 26 9 4
214 1 1.7434905654680377 6.013782685991774 10.240213283123788 10 1 11
474 1 0.9704061549842707 7.043198926697076 13.145070667934569 2 -2 5
750 1 3.979559418903095 6.891316681210278 12.041412997619489 15 -1 4
956 1 8.15771496671952 4.803815512152217 13.4336584796131 5 3 12
715 1 6.615535906717637 6.797655715792166 11.067951763457508 -30 28 10
34 1 5.589473823149415 9.216872054552907 10.341465631657753 11 -24 3
118 1 7.696455519799936 9.36575461911888 12.211827696293556 24 -8 30
828 1 7.075009914417734 6.820074540209986 13.801886499295014 -2 7 -12
635 1 9.28773479783844 7.667422085399804 13.823721636162611 -2 -2 -9
149 1 11.911500096086405 8.619338513126312 10.489674663124303 6 -4 -6
262 1 12.808810346241392 6.2005806007864175 12.822622199933477 5 11 -5
930 1 9.523511237111054 7.193892711468018 11.192259160775798 -18 13 4
980 1 11.729131564081424 6.194643150872206 9.7960383032598 -9 -1 8
817 1 16.56843843686662 4.940588982094112 9.712581088138867 10 -2 -4
803 1 14.811289696299891 9.414624865324456 11.96339367532145 -22 6 13
155 1 16.750085443754738 8.009191827251971 10.36278107027987 -3 -15 13
777 1 14.375501699960221 7.353135213254723 9.625031435262693 -2 8 1
276 1 15.965526039954169 5.788209999942154 12.383350141088286 7 5 -13
656 1 17.459022088373835 8.283680289852226 13.977523704820817 1 13 -8
618 1 18.708787757557133 6.801290072563812 11.889677700061107 -6 2 -3
377 1 22.610998183007826 4.9820765278051296 9.552726583896268 0 1 -6
542 1 21.465485120955975 6.6471358669784 11.754548017864415 -4 0 6
761 1 23.50320764249109 7.588308184218432 10.604979835386398 -7 7 30
644 1 21.568358792955248 4.834715874738534 13.99063282209574 -3 11 14
830 1 24.9343436047505 4.919891436336128 11.093001772038624 11 -28 -4
549 1 25.9121850391749 9.235494409811563 10.057239044416825 -16 13 -12
3 1 26.437352578872236 6.930076165944891 11.523646292859354 4 12 2
268 1 27.17318629587542 6.7854661891987655 14.130975816399934 1 -7 0
923 1 24.469225254837607 6.9663673888985915 13.25596335388972 8 5 -3
123 1 1.0234728757767797 13.740223587253288 9.632947439724104 10 2 0
883 1 0.3160959722778379 10.854750657771753 9.724801155008635 -18 -15 17
425 1 2.2237541496937543 10.879859465667616 12.961708609760805 -5 30 12
784 1 0.2245539878320081 12.790446037745705 12.450906082186172 24 -20 -31
338 1 3.21753265928115 11.457961742223095 10.087070030213802 11 20 -12
814 1 3.214439374644327 13.607865788254548 12.55019593247181 -14 15 -24
837 1 5.6414327920009075 13.440392493769703 10.684684421708011 -8 11 6
163 1 5.199748906025182 10.984997435330753 12.493469278827224 8 -15 -1
954 1 7.980453528708787 12.108901711504505 11.172344417267116 -9 0 25
900 1 5.7873272205958886 13.984967170721193 13.819664439870074 -11 9 22
726 1 9.098505466489426 12.642293968392904 14.14589340196731 -1 -8 19
344 1 10.34622008098955 12.705608562515685 9.593218951640052 0 -11 -11
780 1 10.360303187270755 10.404294355881566 12.334552336751932 14 -1 11
4 1 12.564706796358877 11.900546968763706 11.34306610432131 -20 14 -4
120 1 10.268000278668488 13.811656807511183 12.35833815282602 11 -11 2
388 1 17.05506392066329 10.972907484815227 11.336561645029064 -4 -6 -5
638 1 15.33212972615484 13.610619411975971 10.583578972102211 6 23 1
59 1 15.58105399695327 12.246457473830636 13.168104568659889 3 8 17
32 1 18.83609685490554 10.677095970844903 14.132609962848791 -12 3 -21
661 1 22.72744772559782 11.315122306444962 9.701515715542218 16 -14 11
669 1 20.13134414939033 9.50221914728476 11.208627263749198 14 -3 2
533 1 20.715705794619787 12.361736965096291 11.641042295926324 5 -11 -7
71 1 22.89278195607346 10.12853039478345 12.269579217753714 -1 -6 14
277 1 23.51920181776912 13.51004448373645 11.383526906575728 4 4 -26
556 1 22.086381881225112 13.11328436917739 13.681576531733008 14 6 -21
903 1 26.143506340915028 12.223613812617073 10.538928611761591 6 -1 -18
977 1 28.305681191702856 9.878827131492244 11.95354663418327 -1 4 -10
642 1 25.42370789596268 9.692837144926308 12.839719907061077 20 -7 -7