LAMMPS data file via write_data, version 2 Aug 2023, timestep = 8000000, units = metal

1004 atoms
3 atom types

0 35.22820204664032 xlo xhi
0 35.22820204664032 ylo yhi
0 35.22820204664032 zlo zhi

Masses

1 22.98976928
2 14.0067
3 1.00784

Atoms # atomic

430 1 1.5828338483765032 2.341021149089453 1.7590170982681081 3 5 0
746 1 4.459802500978015 1.213251051365857 4.284351369273576 -2 3 -1
694 1 8.940265204238088 3.4184263183836427 0.6068537684819395 1 -1 2
553 1 5.759684425148221 3.407399587018432 2.5309823308874875 -1 6 -1
99 1 11.314915298035778 0.898607825793911 1.9090578240493161 3 0 -2
308 1 11.612084858177566 3.5850790791727682 4.770432926408549 -2 0 -1
162 1 10.084860134358403 1.0177865170211577 4.882817635282364 4 3 -1
256 1 15.218437142810965 2.9050879959702294 3.523280119239735 -2 -1 2
599 1 16.68117576447916 0.159471283122262 5.018747669513692 4 1 1
693 1 18.888436731420608 0.5253663950642059 1.677651668407883 -2 1 0
600 1 18.661749877594854 2.6138556656070904 4.923727239996109 5 -2 -2
482 1 17.544596997061824 4.3879667221737755 0.08746326198899779 2 -4 2
676 1 22.1447535471868 2.2619125143094663 4.865909048561479 4 3 -1
768 1 23.847588359817376 3.4302737419014866 0.9602670917555156 2 1 -1
220 1 27.002138503136607 2.094748165138032 1.184660868641286 3 3 3
513 1 29.75421892831301 3.962171802452231 4.707871854306577 -1 4 6
642 1 34.084436440314526 0.5363667814170545 3.1085577870839707 -1 -2 -1
689 1 30.581860476227448 2.6730434538725327 0.5641854882468642 -2 -1 2
722 1 34.327625362521395 4.528772260496171 2.657415988625101 3 -2 0
84 1 3.4468208410224928 5.791077190656394 4.022413068276275 0 -2 0
806 1 0.6848916516271932 9.40760200088969 2.6327337946005547 -1 0 -1
905 1 4.075893048367273 9.328946608623871 4.495296511739452 2 2 4
668 1 3.65106089860463 5.831279946273712 0.5265528177487729 5 -4 0
930 1 6.491071607591207 7.106332842507983 2.938629295829224 2 1 -1
868 1 9.93053942135245 8.403058084628839 4.502882275953356 1 -1 -1
578 1 7.941009207968566 9.83252546939074 2.0004573826755703 4 -3 2
938 1 8.214890013992555 5.50655548805201 4.772016789164197 5 -2 -1
454 1 7.543022588687638 6.438434939642248 0.15380178497346012 4 1 5
845 1 10.669621238730958 6.668229679444901 1.8504151936396738 1 -3 -2
130 1 12.31040516815747 9.696403401611805 0.38653173170940847 4 -2 2
345 1 13.645026861652982 6.593923081786029 1.8368541972653847 0 1 5
196 1 14.278813631440128 9.268034717912887 4.398220496497224 1 -1 1
572 1 16.891572814047723 7.426103586105353 3.1862015187719224 -1 -1 6
419 1 19.822517475706377 5.498005888681639 2.7338669465056182 0 3 1
783 1 23.727278940263595 5.339150421925555 4.345883012871681 -6 3 0
226 1 22.203820415048956 8.675162544355778 1.7431209257162967 -4 3 -2
955 1 26.671083495047956 5.1073004078820325 2.713301646136813 -1 3 -2
800 1 25.483961771427264 8.014319497835848 1.8375245682650183 -3 0 -4
772 1 28.506401447048926 7.250983985645379 4.137461682824891 4 3 0
114 1 32.096142112232464 6.60682682694465 3.603900588049996 -3 -1 -1
971 1 32.41852083786543 9.925297846612155 0.6617957856469968 2 1 3
876 1 31.205452347999092 9.921425827679315 3.383636749142129 2 1 6
306 1 3.5358346618220877 12.27295574252589 2.7759139932106147 3 4 -3
528 1 1.1507923693671536 14.276882497831588 4.040789924677509 -2 -2 1
609 1 6.981779141235339 13.246771084805179 4.674220137359264 5 3 -3
505 1 11.497588658135514 14.524871875472373 2.020820422581993 -4 0 1
86 1 11.687131802687142 11.331401126965943 3.4355160657851056 -3 0 -4
827 1 15.575081101767132 10.194701238551394 1.048505425741358 1 -2 -1
816 1 18.846569792479404 10.461447151860197 2.0454021116972743 -2 3 1
201 1 15.527561581537855 13.310487627775917 2.5375257995818328 -2 0 -2
788 1 19.725310055330418 14.724955024812086 1.9820068506764772 -7 1 2
835 1 21.95308276197099 12.335851089056604 1.4880053840519043 2 7 -2
460 1 24.46679517826852 11.77754002045033 3.7663374499988755 -2 3 2
37 1 21.29814659482311 12.321967529479078 4.555040046005212 2 0 1
614 1 28.74736615031724 10.422052036505265 0.8820079130025732 5 1 1
453 1 26.49516344538196 13.192985025397498 0.6204510084390481 -3 2 3
656 1 26.5348702136954 14.956055740672245 4.77830892061153 2 4 4
925 1 29.788628068701716 13.174252358334764 3.459047866655696 1 2 0
245 1 31.071792778366653 13.658638453619742 0.12300374515540519 3 6 1
921 1 34.26059005216418 11.262309092525816 4.7908162010962805 0 1 2
911 1 35.13811971194185 12.288730156321629 1.486686761993282 0 2 -2
73 1 5.030951679956679 15.800036506392232 2.8706665386962835 4 -2 7
197 1 4.7266786442488264 19.084035698744238 3.452272922947431 0 2 -1
841 1 1.7947408831503695 15.199817960488852 0.4286781048628349 1 -3 -1
1004 3 4.978654689860041 15.128398043316741 0.8690858286859788 -4 1 -2
189 1 9.210703468271765 18.207894290466605 3.1014518050449023 0 4 1
184 1 7.977959311359844 16.753026784192503 4.586017720338743 4 6 -4
287 1 13.867488593416816 16.400385383597484 1.6411197306010352 4 3 1
106 1 12.586253882599406 19.84676049736866 0.516765810192878 4 -4 11
718 1 12.43812620644495 18.15485216303086 4.106204676217806 2 0 -5
351 1 17.042421492122553 17.143813021295703 3.1712836149002612 -4 -3 -1
983 1 17.061361295230675 15.706034384438954 0.2580380795996465 3 -7 -3
365 1 23.59823900529363 15.1811207346115 0.7643708102818075 2 -4 2
289 1 21.203701223272986 17.126494622627682 3.720300394239517 -1 0 2
597 1 23.49593005469292 15.139675276702446 4.774783424009304 -1 -1 5
234 1 24.16509272205134 19.007354484060723 2.271567438012545 0 1 1
329 1 20.920323473565443 18.288217527666696 0.8722552326049485 2 -3 -4
842 1 26.05304092352901 19.069563397953107 4.414155497785347 2 1 -1
199 1 27.17445789205692 17.77335744494712 0.3097510086217731 4 4 -1
515 1 32.73769473432245 15.360142161722045 1.9616546427577815 -2 -2 -6
959 1 30.671721525395636 17.75962529474187 2.263041962702537 2 1 1
364 1 33.62277140876562 18.553307292584204 4.301247847242904 -1 -6 -5
468 1 35.10847405515193 17.79197752378167 1.002882090777644 2 1 -4
991 1 0.158160805139417 22.367901496428132 3.7370563751734847 2 2 -3
562 1 2.805834503756892 24.721095432627653 3.0580482015869856 0 0 1
380 1 2.3050796031972505 20.67753692284566 1.2947633686476845 3 6 -2
154 1 5.770195419048517 22.145458531171048 0.6088393451229283 0 -3 0
263 1 8.801626367797237 22.059152256030966 1.6944163885555537 -1 1 1
191 1 7.340435086686458 24.58565575023572 2.3992938391717735 -8 1 5
833 1 11.170058725803004 21.266575539087906 3.4743725136030874 3 -1 -2
146 1 12.583711801744387 24.15863379756294 0.7000118134084686 -1 0 2
843 1 14.557515457453892 21.35429203092017 2.9073017807526003 0 2 -2
675 1 13.277599457086879 24.51946831794265 5.007826317207194 3 -1 1
229 1 18.173555437344664 20.30396278831093 2.105158795223145 1 -3 0
208 1 15.531495201762375 22.166102012557825 0.06737213114483474 1 0 -1
732 1 17.36390018230013 23.87452688739511 4.431293073107967 -7 1 4
333 1 19.75055322938235 24.350695453941174 0.10051378504884892 2 3 -5
260 1 21.75552593224084 21.514737388240817 2.213836538371814 -1 -3 5
137 1 23.523073914465282 23.796602271666234 1.0414307898281319 -2 0 4
44 1 26.30453738335783 21.00788426246016 1.5467836788473592 3 1 -1
550 1 29.981945443417757 21.672326092099862 2.7375296032499095 0 -2 1
432 1 26.360886648074956 24.129540393472027 2.7067297739578007 0 -1 0
545 1 32.87220762398054 20.50046380961186 1.223126657838415 -5 4 0
560 1 33.924139715797665 23.658964637319862 0.11601488947386461 -8 1 2
275 1 5.008997295225236 27.35023679307933 1.3435842937136138 0 -4 3
332 1 0.8478054399005238 28.006273228306494 3.741713424575394 1 0 1
433 1 9.393362083232557 28.37935803551314 3.114696482068543 6 1 2
217 1 5.1131368033787385 27.178992716586652 4.687865794247444 3 -3 3
228 1 9.878328033726731 25.409748860874718 3.8369534466663056 -2 -3 2
728 1 10.6240516373358 30.061490705762264 0.6517605656071757 -2 -1 -1
294 1 13.754508306811761 27.804293759357865 0.4353306977906725 0 1 0
40 1 13.882714729493104 28.65133829089932 4.57803421761857 -2 -4 4
516 1 16.548110747246806 26.509735517057116 2.62463148131622 0 0 2
265 1 19.117225556889537 29.07280542581377 1.7050407041302682 1 -2 -2
953 1 22.49102565294765 29.13035190947175 3.4440343367097563 5 -2 2
450 1 22.14155583916279 27.17529267511646 0.7754912569636395 -4 2 -1
755 1 20.402502809666373 26.054747115068658 3.877686274174777 -5 -1 2
360 1 24.171608829753453 26.514697208983364 3.0935086615014584 0 -2 2
335 1 26.90388597893941 28.430860513131016 3.760980820463413 5 -2 -2
441 1 29.600011376720627 25.727917539762913 2.6709526117927704 0 2 -3
565 1 33.704416540143406 25.614604356697384 3.9231214863307597 -3 2 4
945 1 32.217948091774964 29.16927086331354 3.8434619208433243 2 -1 -1
856 1 32.73743053122953 28.715909958539704 0.7717111435575051 -3 0 4
23 1 2.298069001275096 34.04800383910746 3.5699800850924825 1 3 0
282 1 4.083294193520237 34.96755490367282 0.5181531511323835 1 0 5
811 1 0.7444260180960678 34.63580593060816 0.2840273640195142 1 0 -3
966 1 3.1764812078802724 30.79644448130631 4.421212909104705 0 1 2
138 1 3.156286223998394 31.413993016427824 0.5857237766323032 3 4 4
457 1 8.108114013831852 31.822702781952557 0.372180529165748 0 0 3
503 1 7.808118850466585 34.93058638733388 2.6511515818710305 1 3 2
202 1 6.45745416882047 30.219106732244374 2.65142917167805 0 -3 -1
39 1 8.703237564105788 32.40563680719089 4.984840858202403 4 -2 2
144 1 10.953081793877068 33.133627637713786 2.6626369248599557 -5 0 5
350 1 15.055773873226302 34.11560625516748 2.3493833357416607 -4 -6 -2
244 1 18.56818301862055 32.4805356970211 4.3789900927149725 -3 4 -1
793 1 15.594161322564503 30.36223344415109 0.5812092790385832 1 0 -3
661 1 20.826667101636342 32.953691030572365 2.019418502248461 3 1 0
894 1 24.265922945509505 34.796094249947295 1.4552091138048524 0 -4 -2
348 1 24.8064215071397 30.90270125853958 4.822841620995595 2 2 0
14 1 27.381594474759606 33.103309537526414 3.0881990056242086 -3 4 2
270 1 28.65271496875937 30.541132542087862 1.589422071856523 -5 1 -4
940 1 25.603222099511736 30.580057418323616 1.8300164894022857 0 0 2
939 1 29.916861760801066 31.583691667247127 4.682296247092047 -4 -2 -2
625 1 30.147178480605607 35.14543838827917 3.484149400761102 1 -3 -3
377 1 34.875751813775146 31.718110260657195 2.335518163796027 4 5 -1
853 1 32.22074012850032 33.28590803189016 0.234614683386989 -1 0 -2
994 1 4.888694108059093 4.599855448435326 9.913429534519127 -2 7 -2
786 1 0.4327470122317756 2.103752702142485 5.134185298537343 0 -1 2
552 1 2.3151042514255176 1.1831815508228152 7.600375362311173 2 -1 2
129 1 5.869815767036563 3.419816473394331 7.3460404870445855 1 -6 -5
830 1 11.105135080107347 3.339638896111857 8.12737501517491 2 -4 0
891 1 13.95059781147043 1.715574594106063 6.63149692570056 1 -1 -4
319 1 10.341983328266004 0.07089828015184452 8.896625352950517 1 -2 0
1001 2 16.17273013569961 2.403588928182093 5.7989242068845375 2 0 0
330 1 17.18597875477095 2.277214298953169 7.711407494447152 1 -5 -4
547 1 16.526754618915778 4.684675417483363 5.693888986287695 0 -1 -3
936 1 20.87465931486263 3.554875385456104 8.10194382316876 -5 1 2
120 1 24.57069247762311 2.5207030726310724 7.0049353909523475 0 2 8
264 1 23.79091979431594 3.4304861442867796 9.765186460128163 -4 0 3
394 1 27.388296572208077 1.4781277393535968 5.245560004138401 3 5 0
115 1 26.153146014378322 0.5471780773898496 9.807123698629278 7 1 -1
161 1 27.3672551015074 3.060404683193705 8.104919540456802 3 -1 1
407 1 32.12092619917902 1.0692300488757025 8.152867477754702 1 0 -4
590 1 32.91100923821889 4.217541217343954 5.77876969758766 -1 1 4
743 1 34.756123345761274 3.6435222650745946 8.536419040633174 1 2 -1
343 1 30.269955907806924 4.37270187021969 8.665884392460056 1 3 -3
121 1 35.16345776836189 0.43782434540439624 9.533198078423725 -5 -1 5
861 1 1.6863298437348304 9.732801001592858 6.987772965584306 6 -2 -1
769 1 0.7594406748254964 6.938618308950299 8.971739445871721 1 0 -2
116 1 3.2596916712500676 6.654091615769026 7.161455614557468 0 4 -4
621 1 6.593298620047257 7.640469625058134 6.5128620439559475 -5 4 3
79 1 7.288568316256266 6.4891742060462505 9.293060517074375 6 -2 -1
684 1 11.219751338435145 6.306524507565297 8.260611925115208 2 -2 -1
225 1 11.993303727719574 9.849452976575824 6.909223258119976 5 -3 0
999 1 16.496195852598404 7.371576315731966 7.2462480970600405 0 1 -2
667 1 19.31109896527914 6.682053840617459 6.82210894234879 -5 -1 0
655 1 19.158087720592103 9.910263185713317 9.930073536474886 -3 2 1
594 1 23.34244935412095 5.661347463323375 7.669525293599551 2 1 0
315 1 24.53107050096443 8.931464531190482 5.657551983876928 -3 1 0
102 1 21.36857314485123 9.874206840747023 6.6423121203022255 7 1 -1
531 1 26.387886173396915 5.443661008482594 6.251660739852436 -2 0 -1
111 1 27.161116271274427 8.652476072700651 8.249050663602604 1 2 -2
271 1 34.653663773980114 7.06938965325905 5.7310111402955535 -2 2 -3
268 1 33.413623582689425 9.078128386425735 8.652035552592901 0 1 3
584 1 30.69528227187081 7.593668490196241 6.891865988357757 -2 -1 0
864 1 2.5684004449491233 12.710745855232974 6.153701347813631 5 3 0
534 1 8.394547536038019 10.30640216738801 7.572122765330459 -5 -1 -2
748 1 5.266182943447349 11.29643358956423 7.34043625534149 1 -1 -1
300 1 9.929456596932889 12.726554375707384 9.960257242279795 0 4 1
974 1 10.64680433094628 14.68386123415539 5.313552109997731 3 -5 0
152 1 14.206051947194231 13.907943623624556 5.714588558943821 3 1 -3
125 1 18.711389953933878 14.577376928263428 5.811790471260803 -2 -3 -6
785 1 16.684874479779474 11.096738145482766 6.253368221411575 2 -1 -3
849 1 17.388548915556044 13.394966907247348 8.65384951465529 1 -2 2
246 1 15.150966023424276 10.494856589046103 9.499320765198476 6 1 -4
927 1 24.925685229036898 11.50788867673484 8.612191211772734 2 -1 7
495 1 21.92867008043168 13.750181971395037 8.953669388819884 3 0 1
31 1 26.646984357948718 14.6336408067317 8.074507544452882 2 0 -1
779 1 27.30956716750405 11.357669172534262 5.128460116935791 0 -1 -5
438 1 27.529941290661643 11.798856772445612 9.964341714013864 0 3 4
691 1 35.041348173282564 12.066155712507154 8.402918850916198 -3 -5 1
236 1 30.603953135912963 10.959496480925722 7.6628927839589975 4 3 2
628 1 32.77138180372655 14.77609901248938 5.869879185999456 -3 -2 -6
242 1 32.62291188200798 15.031322465871742 9.501479281231985 3 1 -2
564 1 1.7703956938632794 19.958636289777193 5.915336644227042 1 0 1
766 1 4.055124933603742 15.928245393746781 8.579991157171417 4 0 -4
47 1 3.0109446997427147 16.841159056067145 5.39010726291815 -2 -1 0
336 1 3.1681476217830498 19.403312351734815 9.387950659015827 5 6 1
738 1 0.6503926612281558 15.489964661660759 9.72380040995533 -2 2 2
933 1 7.626362208110104 15.55197131925549 7.411157732532304 3 4 5
113 1 5.977070344862155 19.02307730620677 6.565235773367182 5 -3 0
954 1 9.65797037288527 19.349327823532565 7.5824747277580355 -2 -2 -1
510 1 6.610636772370523 17.960021718798014 10.056291140034723 1 3 0
571 1 12.61927238230141 16.706848863244453 8.022300690583046 2 -7 1
324 1 15.908606735005282 16.48998194125275 6.501313396301596 -2 -2 9
327 1 18.901004619543432 17.295913187399123 8.328334833786414 0 -6 0
895 1 15.77318450534638 19.434593747956384 9.614786671944163 1 3 -1
710 1 17.975428133987847 19.82963740942544 5.394284044623863 4 -4 -6
15 1 15.829120707940337 16.07891207199666 9.714222394300567 -1 4 -4
267 1 22.768723884305324 16.913437848458415 7.921458173275767 1 -4 1
22 1 29.00349905016368 18.096095085900647 5.443005125486783 -2 2 -2
735 1 29.976812196015537 15.302122799698555 7.210048206263979 0 -3 1
325 1 27.53848521250297 18.119086895971087 8.05073370204018 -1 -3 7
854 1 35.137685887454424 18.00549054794664 8.09358358531015 4 2 -3
36 1 31.160647395463045 18.348004484667115 8.13869058220608 1 3 -1
404 1 2.7531456229404796 23.63877374773145 9.891509125150348 3 1 -4
814 1 4.1137619586931224 23.821347369198374 6.166910387149286 -4 0 4
619 1 0.37916453451821225 23.794240540989193 6.4901691839566515 1 -6 2
820 1 7.792353016539398 22.25801991824574 5.218066962941475 1 -5 7
751 1 5.970341733281761 21.7343329660151 8.898378799033836 -2 -4 3
277 1 13.504883349205627 21.287004853463834 6.872411394708771 0 3 7
68 1 11.301423615953246 23.719723766659236 8.169471631641144 2 -6 4
177 1 14.885705560361865 24.59618932691695 8.751821995115584 2 -4 3
168 1 17.061381899101562 22.541584687346013 7.874485340178796 -2 1 5
903 1 21.57219811636834 20.23929178462978 6.36976253774627 0 1 0
747 1 23.218013967772333 23.042191094814854 5.251973315436238 1 -2 0
412 1 20.475365197548896 24.688616153691072 6.870143518917832 -2 3 0
259 1 22.045499644818328 20.33502153013303 9.700012309846237 2 -2 4
904 1 23.571884927636567 24.49671172784654 9.491835688341192 -2 3 -8
3 1 27.273100131171052 21.942468972378602 5.452650342121793 -4 2 0
662 1 29.259799838805876 20.758677054123208 9.141036330226028 3 -7 -4
105 1 25.338312711481294 21.420432653060207 9.521568411503422 -4 0 0
523 1 27.559587751171744 23.747363167993726 9.350208358451944 1 1 0
346 1 34.73539198759497 21.10884224176157 8.791129941465435 -3 -2 -1
200 1 30.372830189346097 23.81038104540947 5.358638518585318 -2 1 1
521 1 32.82482335863822 21.564826207548123 6.313030175244648 -1 0 4
487 1 32.62858907486133 23.47342644531983 9.719052715584008 0 2 -4
990 1 2.5438686741358114 26.65492802591721 6.604983669908233 2 -1 -3
240 1 2.4960538341730687 29.834107900286423 7.5614143792691095 3 0 -7
371 1 8.158305600311472 28.722137135123067 6.09392268818149 -2 -2 1
235 1 8.532945510608206 25.651069402704398 7.229672976245354 1 1 -1
334 1 9.633124582855098 29.815533863220267 9.566419952708403 1 -5 -2
870 1 5.654355921710235 27.17610342372423 9.210201936798592 1 3 -2
551 1 12.984018938108795 27.86815533702112 7.665711382512998 8 3 4
456 1 11.043814603851319 26.19305285560314 9.945605468320974 3 0 1
957 1 16.727110399294425 26.9058128589452 5.87151203865127 1 -4 2
797 1 17.776561102135783 26.111552361608478 9.105769805003664 0 0 0
910 1 19.245652754874214 29.71593375011289 5.927799308584747 3 4 -1
919 1 16.25709129626297 29.55115497061073 9.123915587569826 -4 -2 4
139 1 22.674874639315984 27.9340717298752 6.1846659479761 2 -1 0
851 1 23.427051191411078 29.84129594406246 9.374043891858976 -3 -3 2
488 1 26.860507304958016 26.135602545342635 7.061051255523551 0 -2 2
492 1 26.55632828056823 29.534607244213902 7.157072513913861 6 -2 -1
976 1 29.372275700358976 27.459833767991505 9.808930625848074 1 -1 -3
908 1 30.43456831222267 27.7568617015796 5.736501161785454 -1 1 -2
43 1 34.17919936619972 27.64450341613363 8.049131511390224 2 -1 -1
652 1 4.382102221262946 33.79433913538002 8.570584306193176 -2 4 -1
948 1 1.038520385187819 32.72526680508388 6.623457478386369 5 -1 4
60 1 7.240054928661141 34.73894658719339 6.625214334445883 -2 3 -2
678 1 5.777678415058001 30.863996447179723 7.356047115789393 0 6 1
135 1 12.090959423673203 33.773673507606745 6.080634991889092 -2 -2 1
834 1 11.272634925825088 30.44211097490906 5.570765416106941 2 -1 1
975 1 12.15120072738042 32.35003768093275 9.869542011494278 -5 0 0
473 1 15.594644831790523 31.178510594362727 5.7135700467050095 0 3 -3
367 1 15.418365737240622 33.962671099432555 8.665988731155604 -2 7 3
290 1 18.63905297855651 32.26531974011743 8.756044681979985 2 -3 0
844 1 22.053673619826665 31.92239174621591 5.86410054450871 3 -2 4
946 1 20.505862168403112 34.64851223958855 6.527411680384778 -2 3 1
511 1 25.05611736932817 34.49545804754724 6.324116614750315 -1 -4 -2
187 1 28.470226173379867 34.225198204289434 6.658951471945949 2 -2 -2
713 1 25.39646507883185 32.827746917569044 9.360089446327864 0 -6 5
481 1 32.62290594055622 34.035086613446275 5.5124890298206095 0 0 0
546 1 33.77184176126348 30.45198855972439 6.352452285671029 -2 0 2
653 1 33.58506077836081 32.2467326445168 9.301686086733811 -6 -3 -1
389 1 30.64730315957357 30.6451149579359 7.806045544289986 -4 3 -2
613 1 2.1880433351457462 4.214392727309826 11.971133720113466 1 0 -3
591 1 2.8528747597036954 0.20062470878432595 10.838721268865397 -6 1 -3
19 1 7.478458311563953 2.510842683763166 11.00633385898013 -2 4 -4
812 1 9.89999972768185 1.7263417664163767 13.186843416918817 0 0 -5
569 1 7.027714244815878 4.3837402765728415 14.355773850662343 3 -2 1
96 1 13.12454573979623 4.223963304032812 12.345636145545296 -2 1 -2
997 1 13.142548056026419 0.7673106719833603 11.215183225569492 2 -3 0
579 1 14.439615617330313 2.343829489784287 14.388678650484486 -1 5 6
566 1 16.111967609811533 3.357422283301345 10.56430156608894 -1 1 1
141 1 16.384055254401833 4.822845946310159 14.203430848502931 -2 -3 2
934 1 19.427826325063215 3.5998660806939995 11.783532276739026 3 3 0
733 1 17.20261090100423 1.3451540724951168 13.158910782932972 4 1 3
359 1 22.685422112309894 0.1466412834134233 10.15090716688561 0 2 -1
280 1 21.391149292765906 0.37391788525498754 13.54035975483746 -1 1 5
51 1 23.02090415835194 4.872582941064644 13.353218891927732 0 -2 -3
892 1 24.148054620035634 2.008654304393363 14.898996715166243 -3 -1 4
699 1 26.320720275190336 3.691073482504639 12.647832232696134 -1 0 3
798 1 29.693242341636406 4.409964354886906 11.818858645970604 1 -2 -2
855 1 29.109305223901316 1.6540243561742307 10.177161022798753 -3 2 1
352 1 28.242730954990037 0.3095430789785815 13.748764314543388 5 1 -1
212 1 31.99564328960714 0.5845018085272485 13.049329589824627 -2 0 -1
618 1 34.63661107859514 2.693275996279307 12.212527408388457 6 2 0
899 1 0.45471562286942824 8.808775766742707 11.593285236390052 0 1 -7
875 1 4.222119598043075 6.276015341451159 14.347183465144692 6 -1 0
273 1 4.519274441457239 9.87873095477195 14.28794173398329 -2 -5 1
375 1 4.502542398569107 7.820591550952854 11.106728791449786 2 -2 -6
401 1 0.5024276100050069 5.363344999184219 14.378949454654752 3 1 2
570 1 9.931494585167378 5.312671540185799 11.725611106934393 3 -1 0
147 1 7.750795063383632 6.969165447279893 12.772992271938504 2 3 -4
98 1 13.697239785920079 7.325950007815199 11.468143153955468 -3 1 0
158 1 11.521056230662085 7.841389526014806 13.918992073269573 2 -2 -1
6 1 10.81880937162936 8.797029164451267 10.123639754711942 3 -1 3
542 1 17.062101470613992 6.899133671780678 11.196727922886522 3 2 -1
416 1 15.805987926756378 8.490074809676205 14.768295858716963 -1 -4 5
846 1 19.59641413823968 7.4616435803671655 13.52426753392934 1 -3 -5
810 1 21.10032749616371 6.714846112294029 10.284706842183002 4 0 2
885 1 24.118614019808042 7.965751128162072 10.228687036563876 -2 0 0
491 1 22.903900914104103 9.250246199030366 13.354846556444167 -1 -4 -2
178 1 25.98187318837299 6.374119614723616 14.335406551135884 1 2 0
923 1 27.000022451991992 6.087239043815179 10.647609065814875 1 1 1
726 1 25.93416571383678 9.557089641768517 12.683426745138103 -1 2 2
674 1 32.12733485064776 5.359048813315644 14.922337737770572 -5 -1 1
799 1 30.23696703254003 7.9823074295431775 10.172069037180178 0 -2 0
85 1 32.686938108601915 9.166456676151578 12.859625740132401 2 2 7
554 1 32.60614250064642 6.160115861659839 11.201327773034054 0 0 3
907 1 2.6190710097007517 11.001672849797389 10.080925472832204 0 -1 -1
984 1 1.2299565094543854 12.636355753190847 12.748586791816988 -2 6 2
164 1 4.302377268332496 13.938606297057852 11.207715701021387 -6 -2 -1
683 1 7.127899511764982 11.256114685788967 11.759356096665233 -5 1 1
123 1 7.13599238378307 13.978771946880716 10.708280610916507 -5 2 0
660 1 6.809498699040322 13.453730296089844 15.05333480259378 0 -2 1
988 1 13.339341298686143 10.564570284471868 13.27771879157847 -1 -1 -6
549 1 10.24400561067246 10.888851087503085 13.331692432912218 2 -2 3
183 1 13.493135245490594 13.501470677759194 10.611630535273596 4 -4 0
877 1 12.169201536440339 13.97253081523266 14.160357974859487 1 0 5
215 1 19.804880714985387 14.464356083863754 11.463660537856383 1 -1 1
741 1 17.60879816093677 10.800307896270608 12.899548768179207 2 1 1
886 1 15.81739651378972 13.702707153886553 13.043469189034635 3 0 7
969 1 21.95441197577185 11.065755945288274 10.779152428094697 0 0 1
679 1 24.07933170406415 14.536441670564823 11.309120055072746 2 5 -1
223 1 23.682495356288378 12.565482296411142 14.404643691300443 4 3 -1
339 1 29.64493654459018 14.856772315353359 11.10195222495481 -4 0 4
760 1 29.280885325873616 10.47479890024724 13.875953951669203 1 -1 -1
383 1 27.00081984130065 14.251117378221485 14.441216922762738 -2 0 -4
388 1 31.39406606656681 11.909645767379804 11.257963311928009 6 4 3
66 1 30.653369928170722 13.36733825900131 14.378307704066652 1 -2 1
916 1 34.05739965887828 12.62763676387889 14.573878562443342 -1 2 1
211 1 3.5907270971656335 17.444397033985677 12.219844408905386 2 -1 3
519 1 1.5717653944874665 19.268627203236548 14.233479735953415 -1 -5 2
529 1 6.871169562216054 16.402744510321323 13.636845880359147 6 3 -1
815 1 9.450996528563104 15.902144512204096 14.694610820270318 1 -2 -2
190 1 10.154577260515516 15.748165995407511 10.291198159486225 -1 1 3
483 1 10.371523866796567 19.180407429426634 11.517209137274708 -1 0 1
312 1 13.35848684613273 17.101441232001545 11.13251435222892 4 -1 -1
685 1 13.63761511192222 19.992511610867265 14.315384203644925 -3 4 -1
310 1 14.75622703345919 16.34311587479239 14.425386135059831 -1 -3 3
824 1 17.302902048735504 16.976987979884115 11.990143944716456 3 1 -3
530 1 16.741833772421916 19.601704504559894 13.95011302108388 -1 0 -6
762 1 21.7239601802272 16.96545636003429 11.066146276366158 1 1 2
702 1 25.132444958924154 18.87227829692714 13.08516869351107 2 0 -4
261 1 20.245073414967298 16.814842061539835 14.987009939792985 -3 -1 3
8 1 22.89488749331589 15.890924471869173 13.501515758926605 3 1 -7
695 1 28.104341538538232 17.53745869590977 12.645432356508367 -3 0 2
134 1 34.405902639535995 18.745280819427183 11.72276226038173 0 0 -1
617 1 31.270469442259735 16.81730941464002 13.241326734599605 3 -4 2
337 1 34.73292876852721 16.26511412490468 14.005049569802344 0 1 -1
326 1 3.3242559905524085 22.176033514622826 12.85653540830975 -1 -2 4
867 1 8.340032278794297 23.57761162040704 11.058379328774752 -4 1 4
298 1 7.097418573812222 20.507621829182433 13.213855134509899 0 -3 0
447 1 7.574493597757416 23.483305269246607 14.356841647907004 0 -1 -3
218 1 13.139309240903094 22.271183841851162 10.972295283151785 -5 0 -1
395 1 10.9948589110393 22.7492031888686 13.212960201796898 2 -2 1
222 1 15.049539038116638 23.71351822118558 14.748780560000407 -4 2 1
960 1 18.734219551064683 20.331361027303267 11.34496080883762 3 4 1
436 1 16.7815732133843 23.017302277725953 11.521328171507657 -4 3 -1
889 1 18.73171955091109 23.800210803192115 14.42127963770282 -1 4 1
723 1 21.062218376060443 24.047845667857608 11.624711921357468 1 4 4
272 1 21.67877047631456 20.849732674530152 13.282811462521934 -5 -4 -1
736 1 24.63536222075097 24.599243562892795 12.646196602019415 -3 -2 6
985 1 29.66044502602518 23.48362743731486 11.923360896218334 -4 2 -8
477 1 27.82689182488567 21.079625558321517 13.109765690392242 -5 -3 -2
124 1 31.365422054460588 20.653385529109713 11.369576796633856 0 -1 1
663 1 32.96656075203946 22.225418471771164 13.409993070385148 2 0 2
398 1 2.0026881672622534 26.67398617481718 13.560946913213638 4 -1 -1
172 1 2.644370358584241 27.880128043341273 10.372964453522947 0 5 -4
704 1 0.09497937963330239 29.581092392533748 12.285974051262466 -6 -1 -1
874 1 4.988905119910543 28.37704016038146 13.839153534823058 0 7 3
52 1 9.817767280462137 28.69664283109729 12.300115889745184 3 -1 -1
75 1 6.499890802288131 26.00101412443445 12.0221351080505 -1 1 -2
807 1 5.770277353354606 30.193548447521042 11.310640080076194 0 -1 2
767 1 11.51482458274305 26.10375841515309 14.14927822964649 0 2 -1
181 1 12.577225369287955 29.637202454842242 11.898371520348253 -2 -2 -1
719 1 19.74398313591261 29.56889186562735 10.794271794357472 4 -4 -1
376 1 15.257555274288881 26.144366633183765 12.282166790488292 -3 1 -2
163 1 16.032112584987832 30.12878290805071 12.256685856946527 -2 -1 1
373 1 18.42130494500622 26.56342739383476 12.265873789856922 6 -4 3
2 1 22.43592971495143 27.25521633489562 11.360072686217725 -3 0 -2
278 1 22.333896323483 27.036197030736936 14.346649528470529 5 2 -4
961 1 20.39589441610732 29.66263513588482 14.923672368071298 -2 3 3
104 1 25.927259526171927 27.157710543985786 10.504344490148041 -3 -1 -3
580 1 25.6410640586138 29.111584405973485 14.290952706800825 -2 2 4
883 1 28.429837795263946 27.04082612404752 13.626658594031595 -3 -4 -2
462 1 35.20739865770866 25.59434116972518 11.035134353014584 -3 3 -1
822 1 32.93416098767344 27.26343686380154 12.569814521974015 1 -2 -1
593 1 31.55012201881399 30.11138192098896 10.607013008519438 -3 1 3
11 1 2.0798548011592963 35.19535959900676 14.708617918878447 3 3 1
924 1 1.4874103652213988 32.30610149952684 10.523563693609077 -1 2 -4
494 1 3.827346076566346 32.5092149745709 13.106939368793139 -7 -3 0
630 1 0.4916026716730847 32.39459145900617 14.017679131127451 3 -2 -3
794 1 7.852883375123456 30.317796948637294 14.138500404476192 -1 -2 4
847 1 7.574461478826991 32.62462531696225 10.123403146531567 6 0 8
540 1 6.772970800978973 34.07994043287327 13.252291481948781 1 0 0
369 1 9.850578336309956 31.90408666009148 12.635223710506349 -2 -2 -3
5 1 13.785648077163032 32.81457277317925 12.914922987839136 -1 -2 5
340 1 18.49710682387748 33.95956092618917 11.428556234186175 0 2 1
714 1 25.010657475042375 35.08723522168983 12.698246731633116 0 2 4
638 1 21.571295463141706 32.40906852629042 11.343719853554424 0 -4 0
415 1 24.93325360659189 31.463384086688826 12.36510027775946 -2 -2 3
230 1 23.15821152370169 32.43831188042492 15.019771030170553 1 3 2
777 1 28.846107954576276 30.69070096444635 13.640048545047557 -1 -1 5
669 1 30.064549591805996 33.03182503129648 11.436501290312032 0 -3 -4
188 1 32.100048552090634 31.325621886633588 13.590709423110964 2 5 4
347 1 2.610035489508748 3.950417576988143 15.860406097108946 1 6 -4
110 1 2.1068741419429022 0.361729801765435 18.330909943731168 -3 1 0
59 1 0.3165184694124171 3.9967127967053506 18.479811616270766 -2 5 5
485 1 4.357515929082983 3.0272281701058166 19.829136478433593 3 0 5
838 1 5.702869488758047 2.0788260807602654 15.309945845477237 -5 -1 4
61 1 8.364541493564008 0.9163634955807853 17.837783895216845 1 2 -2