LAMMPS data file via write_data, version 2 Aug 2023, timestep = 4000000, units = metal

1002 atoms
3 atom types

0 28.422298224662292 xlo xhi
0 28.422298224662292 ylo yhi
0 28.422298224662292 zlo zhi

Masses

1 6.94
2 14.0067
3 1.00784

Atoms # atomic

251 1 2.622425345999087 0.45671969685308766 2.9374270165917777 -2 3 0
653 1 2.2379909731392917 4.102991334726616 2.2637300123639963 0 0 -3
3 1 3.9235239774376383 2.4160139238329927 0.8219301473963229 1 2 3
434 1 9.405891655771274 1.6107564561849823 0.4826211856167788 3 4 -5
206 1 6.195065444112921 0.9348990755027102 2.562298207417045 0 1 4
236 1 7.278540548005539 3.7758298013145937 1.7248661349687429 1 5 2
147 1 5.096861781292477 4.616536279406063 3.568428546134538 -3 4 2
427 1 9.643674754429734 2.6363179542513877 3.5340082694413417 2 -2 -1
199 1 10.34435761575876 4.586203590253565 1.9310587468922271 -1 2 0
398 1 13.276916475982526 3.4808263043979246 2.78137140476169 5 0 -3
771 1 11.941357551181225 0.9508860242432259 2.4510996621215146 4 1 -2
321 1 12.30964446316478 2.1403426008159614 0.009508441239400965 -1 -1 1
902 1 14.785294417386535 0.6958103903714387 1.4605964701947016 2 1 3
21 1 18.315489025726546 3.6609699986688096 0.9232311072367477 5 -4 0
587 1 17.54645062318723 0.3235642596748379 2.864350822552506 0 2 0
85 1 14.290422878780324 0.6550794337886438 4.081583348701741 -4 -1 -1
980 1 16.03647396284826 3.18499309434362 3.7918320369823246 0 -1 1
926 1 19.742062291309335 2.5221952468766684 3.660665485033509 1 -1 -4
615 1 23.034672810985512 3.1993068740926254 3.2068295927873716 -3 -2 5
892 1 21.183075843227353 0.05799079784873741 2.343526879470825 -3 -1 -1
179 1 21.036091506205754 2.8827457550135622 0.6624329964157392 -1 -3 0
357 1 28.207505206730385 3.248536446607111 1.0062013936706877 -2 -1 2
938 1 27.95645584260242 1.8753917601662844 3.710081128256717 -3 -2 6
957 1 25.619544015517256 1.129815547268103 4.5558159231544195 4 1 3
319 1 26.0268086776558 0.636521054964276 1.8564617040673463 -2 0 2
856 1 24.796146543952865 4.672832935507323 4.565045686304307 0 2 1
811 1 25.35717168819483 3.183137059938346 2.1471006723646475 -4 5 3
915 1 1.642400132528756 6.346938133526005 0.6851160035337137 -4 -2 -5
377 1 3.141304423096793 6.844982023053544 4.08927585196099 1 4 -1
102 1 2.877513086156022 8.9335003077092 1.3401313104613697 1 1 -1
214 1 0.7632327264425074 8.239729635893921 3.9428385871904426 1 0 -3
718 1 5.532268441233594 6.649577083700898 1.0043646620087983 3 0 0
682 1 7.820939990790125 4.84469073561039 4.110227725451695 0 -1 4
274 1 8.411690803817324 6.597595110372119 1.4752943786819988 0 -3 1
803 1 6.420031733191213 9.211106977837304 0.18749740823101077 0 0 -3
945 1 8.185399889310196 9.261535137884495 3.1227610788086104 1 3 -2
678 1 5.744180877153386 7.816094845384333 3.868178073991064 1 2 -4
738 1 12.288093318043089 5.912804526432643 3.7804996886888738 -4 -6 -2
355 1 11.249945306638459 7.676669732245521 1.3161320607009153 1 -2 3
705 1 12.855111438669947 8.369998271101098 4.143597848521669 -2 -2 -1
216 1 10.12510525665495 7.577647151918358 4.5494936310805745 1 7 3
977 1 18.81119942786849 5.107181573377291 4.007120045205552 3 -2 1
81 1 14.657571466633618 6.9677676615461825 2.6001120751742497 1 0 2
191 1 16.254723242231275 4.96963160938171 1.63014750203383 2 4 2
331 1 17.78105934441066 7.904024026866492 3.2585043621246723 1 -1 1
931 1 17.044052060932678 9.211512003291826 0.35658985470426796 -3 2 3
421 1 19.794311613916296 6.2214608968609255 0.8025464966872567 0 -3 -2
782 1 22.06802305659948 5.460032498605139 2.2382471411902745 3 1 3
687 1 21.3041291565982 8.618010811448462 1.7773150688885222 -3 -2 0
513 1 23.47962820764774 7.502805339211193 3.4182904403036294 -3 0 -2
675 1 28.301770175819012 5.315040576383232 2.978566091569225 0 3 0
973 1 27.49700016989045 8.472834272333426 0.27897503423944026 -5 -1 -3
411 1 26.283786123521665 6.668472852490622 4.152747618649445 1 3 0
407 1 25.043430652669944 6.06856483971264 1.6137857449672133 -2 -3 2
599 1 24.632036538270583 9.217917805525325 1.057377236488954 -3 0 2
676 1 1.6098853609838162 11.205350631769743 2.0719848242851318 2 2 2
799 1 3.646593551659425 11.82755232490875 0.3567403463575949 -1 -4 -1
848 1 4.721444447914677 13.453508729098104 2.7461405898473012 -3 1 -2
403 1 4.849152617449189 10.193059087134774 2.9425994376243523 -3 3 2
775 1 6.8320247334268505 12.136012563857866 2.281779882162795 -2 0 0
180 1 10.661193011198764 10.518131339235616 2.068027997838153 0 6 0
388 1 9.704959221642497 13.185763808619242 2.1460045705092923 1 -1 4
834 1 11.768485485011155 13.598103417992439 4.171741238949749 -2 2 3
816 1 13.776212037045127 11.653891261812268 3.7702865943989767 -2 3 1
135 1 13.110932302821192 9.808411924994287 1.423694258761043 3 -3 -1
239 1 13.117874491762205 13.643802274222201 1.4557697009733506 -3 2 -2
383 1 16.089596378316784 9.693187263074908 2.6549379511195212 1 0 -4
54 1 14.973021226485129 12.29777579495952 0.4062838647965794 2 0 -2
42 1 17.31600190079162 12.124482897266065 3.378296326979363 0 -1 5
262 1 17.769747310137642 11.832442591795632 1.1667995565108347 0 -2 5
659 1 20.309008297409253 12.642041012806748 3.5892467806153943 1 2 -1
132 1 22.257114120125856 11.596495593550536 0.8330501834181215 -2 1 3
908 1 22.934088883925845 13.545395679623608 3.5960608741131552 -1 3 1
98 1 19.141211519667163 9.9579351689754 2.797531996453489 -2 3 0
169 1 23.169396883435237 10.3368279952397 3.533279996282573 2 3 4
894 1 28.2785998814656 13.061958940430618 4.343411140473196 -1 -1 3
404 1 25.17278370630781 12.221293077881482 1.5792707710082123 2 2 -2
606 1 26.735743052494694 10.323298815173988 2.5237868017404157 1 -3 1
15 1 27.555011610656365 11.692033456650442 0.6185962246576225 -1 0 -4
368 1 3.365817342760239 15.320107691398366 1.5799258886656404 3 0 5
954 1 1.8271164215417974 17.45552967092604 1.3862464602059106 0 4 0
952 1 4.380241382703697 17.964666123878754 2.5186988127653946 -2 1 -2
467 1 0.9114059371003306 15.984558262360945 3.3715685617622135 -1 -1 5
792 1 8.57308422984857 14.21154728287941 4.024765401674815 2 0 1
93 1 6.121340583664229 14.809430017377077 0.8101253741649388 1 5 -6
766 1 8.810382005102225 16.569893320374707 1.346517532645506 0 3 -3
378 1 8.234265146883876 16.83314530767808 4.370804985735814 -4 1 -2
619 1 6.4326078793331645 15.573690776453862 3.075847857402407 -1 0 -2
556 1 5.9863891961124045 17.66205021544988 0.21867154778209724 -1 -3 0
666 1 13.782522335588483 15.545785682681675 3.301141128086436 -1 -3 3
349 1 13.72803902930664 18.671531279312752 3.9999840432323155 0 -3 4
831 1 10.926573491091336 16.372446928509266 3.0768881288447383 -1 -2 3
655 1 13.690426686841462 17.779889499978637 1.0002056700039588 0 1 4
114 1 16.895474871311386 17.245785798686875 1.003398842470331 0 -3 0
553 1 17.3618437213943 14.239652969768736 2.1183545086054973 -3 -3 3
942 1 16.856627481179142 17.316831944470376 4.736749889109109 -5 0 4
472 1 18.778639746234365 15.46931202696182 4.148756739023835 3 1 3
99 1 19.593858276263614 17.698059187183215 1.657635173351775 4 -2 -1
941 1 19.91762801115599 14.957160925172492 1.6514652606081595 0 1 0
626 1 21.994470244385326 16.32076314280576 2.830898718037695 1 -5 -5
762 1 23.305613088362964 14.991850173745448 0.8247220421369784 -3 -2 6
431 1 22.978787704637227 18.598599755474922 1.1052334869408067 0 -6 -1
825 1 28.375692244290942 18.784894068271317 3.0356238385980605 -5 0 -2
142 1 26.539317050167703 15.297904602857951 3.000995462872625 3 2 0
850 1 28.041981223106788 15.729953933976866 0.4922057303612382 2 2 7
798 1 24.88402619539753 17.230791542865205 2.3307950262986403 -3 0 -1
343 1 26.662555998053488 17.3214668781773 4.659465772661278 0 1 -4
159 1 4.251487950542696 20.57868242868442 0.26382706209028356 -1 3 0
131 1 2.9896393421361966 20.24167667609591 2.4204990477982604 6 2 1
51 1 0.9525242250984035 20.167583581567776 0.1761628794970008 4 -2 -1
124 1 0.7337531930995869 21.946349914286454 3.7321052036310323 1 2 2
245 1 4.321540878229406 23.01806293306175 2.7525084648361804 0 -1 0
704 1 1.2997570549824253 23.290183203729566 1.4274841322821057 -1 0 -1
311 1 6.319877123349596 21.85963631386485 0.8109263855154893 2 -1 -1
559 1 5.429121331644608 20.4087575524814 3.820525703290961 3 1 -1
329 1 7.842676312456567 22.26603919510583 2.6154440877295517 0 -2 -3
900 1 6.895676965937786 19.008446459090923 2.5808531871446756 -4 -2 2
28 1 8.245042425226512 19.775835388483518 0.3877478199196035 1 1 1
814 1 10.44517459291596 19.45861532396534 3.226552344220454 -6 3 3
259 1 10.681969381941107 21.821596315356274 0.09037751954935302 -2 0 5
402 1 10.413372202484787 22.21850744595746 3.6748499298069053 -2 -4 1
533 1 12.961690110416397 21.57249163375403 4.515778488471158 1 3 0
491 1 13.111506558729593 21.051031007441363 1.268895391275317 -2 -2 3
677 1 12.069285262655796 23.542597149966028 2.1476996302657314 -4 -3 -1
145 1 17.82820480963397 19.45160613627532 3.236870830461066 2 -1 -2
996 1 14.767365827264552 23.328564119184165 2.26764228620423 4 -4 1
887 1 18.599836331433767 20.798860410733052 0.9205231713347063 1 3 -1
373 1 15.922178131757573 21.19553714972043 4.026881401957599 0 2 1
863 1 15.9554155238033 19.943962458940195 1.0792246617358874 -1 -5 -2
712 1 18.239957696081976 22.788220928088997 3.21759557399031 -4 -1 0
903 1 23.229919540977864 19.0519387822436 4.471117575789167 0 -1 1
515 1 19.860437151025273 23.211374970437102 0.6892124818325971 -2 -3 1
330 1 20.80185571669715 20.07696943356619 2.921269547484864 -2 5 -1
452 1 21.549350174258038 22.939807560709163 2.729423010090029 -2 -2 0
318 1 23.6119851192373 21.618507604830437 0.41480702192850283 -3 2 0
194 1 27.18130702649597 22.35494859921494 1.4457810592533995 1 2 -1
754 1 24.25032749407451 21.583742091483053 3.415770719242993 -1 -1 3
401 1 26.383741493350126 23.375595424791985 3.6299822591830306 -1 -1 4
34 1 26.399867574316435 20.647967605586235 4.456424742687345 0 2 2
439 1 26.20063955823936 19.379799616446824 0.9844911726787615 3 -6 -3
516 1 4.528366598085294 27.13134817341993 0.5686199746670538 1 2 0
422 1 3.0505717957929703 25.518588532047065 2.5641793705994975 0 -1 -3
846 1 0.3591509699899227 24.762959601667887 3.7284179935436894 -5 -3 -1
8 1 4.690798229635021 24.111233021228887 0.5814127925100309 1 -3 4
312 1 0.6258399558949695 28.41091858211091 0.9494914586681343 2 0 0
788 1 5.299634862843515 26.893260368664333 3.957437989327428 -2 4 1
471 1 7.075945992790487 24.980397636208625 2.656652792270108 -3 -1 0
858 1 7.992055212358777 27.161686429698168 1.4390342173034099 5 0 0
929 1 7.789021197527316 27.98585959182022 4.3131257469791615 -1 4 4
382 1 9.5104795006194 24.714893917816674 1.2714651612368049 -2 -1 2
939 1 13.263272525501892 26.328608160816014 3.2789055714472912 3 1 -2
488 1 11.22184864504492 26.716699880599887 2.03572538292065 1 0 4
706 1 11.715066800920908 24.611123160139087 4.668227208606538 1 -1 3
137 1 10.625196525554362 27.94170257586145 4.575911000641426 5 -2 0
120 1 16.371299718470983 26.984192233198982 4.488960381012257 -4 0 1
220 1 16.917395964356253 23.698047720017115 0.10906466170244518 -2 1 2
758 1 14.521753698443542 25.48720853718744 0.27450863849564305 0 -1 3
126 1 16.89560577572543 25.746153765295823 2.326070833564667 -1 1 1
730 1 19.590274946759845 25.555873237641364 2.458164623590379 1 -1 -1
11 1 22.181981991531092 25.609643753993424 1.7608067799948481 -4 -3 1
141 1 23.624619016675858 27.679592819569155 3.249118957155143 -4 2 -5
623 1 19.7064555640002 27.82092574716501 0.466294290827722 0 4 -2
884 1 25.13107513994086 24.788219201493106 1.9490714968050946 2 -2 3
301 1 27.392176157516626 25.855877451475976 1.0804650646972522 1 2 0
25 1 28.195000440852574 27.72361093131395 3.870336758939204 2 0 -2
555 1 4.21618007980443 1.4686901327370032 4.768622153105559 4 -3 1
165 1 1.4319437395550252 1.7229865941585005 6.56407502320962 2 -4 -2
621 1 1.1864576316794146 0.3733508880186283 8.960473619286127 4 -1 -2
498 1 3.591347359038283 2.176244624803576 8.076127589148912 -2 2 -1
143 1 1.1289100529139746 4.307195020173544 7.731169693137333 2 -2 -2
14 1 2.520749329025247 4.234129032133842 5.332364994055341 -1 4 -2
140 1 6.690430407351046 2.374792432848846 5.1144371853485255 -2 -3 1
744 1 6.217253288727101 0.1622885472157958 7.1995782559859975 1 2 3
879 1 9.170540665688355 1.3145735720351175 6.425967103399815 2 -4 3
534 1 6.87176096755976 2.6911908074277915 9.379767520023126 -5 -3 3
62 1 5.124198802537823 3.728020549847217 6.540820250056491 2 2 4
547 1 8.396941849565373 4.423392894115142 7.365176519627463 -1 -2 3
580 1 8.944229661952452 1.0267631816113674 9.0304214463856 1 -6 6
543 1 12.084700180379578 1.9068027142035584 5.577287276802806 2 -1 2
603 1 10.588601168287447 4.473433734534505 4.9765150883268445 2 -1 1
581 1 13.69344546670552 4.566945305400812 5.761186366919382 0 4 -1
115 1 11.536055090344746 0.2832232289395083 7.9355567743393305 -3 5 3
669 1 11.078809801861464 3.208796251606307 7.869225811395134 -1 1 -1
747 1 13.310797795301008 4.583496595823816 8.704393186269423 1 -1 5
129 1 17.227247912739845 1.2993129151801794 6.106681964451994 -2 1 3
420 1 17.226572543336733 4.492274667978154 5.836394211442004 0 -4 -2
192 1 14.340549776128148 1.9920965544374998 7.073291513123509 1 5 3
94 1 18.484252574085794 4.710852219156628 9.085527042658287 -1 2 0
962 1 17.27918457985019 1.2600095385673593 8.730208987763076 1 0 -2
899 1 16.103741942506286 3.449261511868132 9.469994937758447 -1 1 -5
182 1 22.905658526260712 1.5750336192893315 6.137617029593993 -1 1 1
959 1 19.723469815057978 2.1337192545280734 6.49119850741421 -4 -5 -2
889 1 21.032245017240957 2.027512392773379 9.134909015872807 -2 -4 -4
861 1 23.544355920986106 3.809397389959137 7.3606594026630745 1 0 -2
276 1 27.190232047215286 3.8656003286084597 6.114715460144424 2 3 -3
119 1 26.977031066452042 2.5742215216679702 8.487086850011828 -5 1 -3
629 1 24.340257181394797 1.6659442306562886 9.064402548469499 0 0 0
223 1 2.429667761151458 7.130673312645974 7.378422382026983 1 -1 2
641 1 3.412949274259931 5.2698344633513 8.863219132564423 2 0 -2
68 1 0.3114042348501951 6.192860740727121 5.690412643057451 -1 3 4
714 1 0.8504613994726284 8.978040429744151 8.98682364009762 3 1 -1
870 1 5.624659839063466 6.322012566252404 6.54587163381313 3 -1 -1
37 1 8.412745101485209 6.791855359109301 6.716298392558061 1 -2 1
824 1 7.511424148295911 9.461172201859792 5.8691561445589295 0 1 -1
127 1 4.7388568953905255 9.132043561968556 7.617412329119702 -1 2 4
198 1 7.503669095967349 8.989337886447144 8.571649559923324 -1 0 -2
557 1 11.447643325193269 5.894035948101208 7.194924432528824 -5 0 -4
1 1 13.73328490486813 7.681856824080568 8.147062167682005 0 -5 -1
31 1 9.756623272247813 7.261264659087593 8.77028842107355 1 -2 1
790 1 15.691178871908342 7.409159279777303 5.107057653878769 2 3 0
205 1 15.90863571108396 6.194982294746844 8.124935977408398 0 4 -1
429 1 18.513034131993468 6.681454244312482 6.830296407772064 1 1 -4
410 1 20.543604918017923 7.581223874194931 4.786152382281853 -5 0 1
116 1 21.570146446651655 4.775246785651784 5.571629365660511 0 -2 1
267 1 21.157209382089803 5.165526452742173 7.936096784582918 -1 2 2
710 1 21.217940465146444 8.677911713845335 7.524552339863723 -2 -1 3
437 1 28.010587944616393 5.7042661656221085 9.259296325891974 -2 -2 1
955 1 23.77889914789967 6.820510974191379 6.291918014677898 1 -1 2
984 1 26.319923359660322 6.535792922722519 7.288581980061692 0 0 4
602 1 26.072650988802117 8.83582155673531 5.596950228005524 -5 0 2
225 1 23.87462759407492 7.129814096566373 9.37076284265949 2 3 -1
709 1 26.47207413984298 8.66606340463032 8.581397242922572 -2 3 2
250 1 0.1379668588795724 10.14788523072663 6.218150019344313 0 -2 2
975 1 2.9831899335157552 9.9724854099617 5.3495926899151565 0 5 3
539 1 0.3915805651768894 13.102625474679778 7.453791001728641 0 2 1
777 1 2.2417246242967446 13.320876110777736 5.591153338487872 0 1 2
285 1 4.06346408941889 13.554660144914592 7.9274682819072 -4 -3 4
780 1 2.766274269890197 11.231144485233457 8.680985820352184 -2 3 0
362 1 5.443492019944634 12.061202121037368 5.507702939581987 4 2 -2
359 1 6.088959902958964 11.882368436134069 8.686552875992858 -3 -1 -1
134 1 8.51426977226564 12.492219326451345 7.4643560614585045 0 3 -2
387 1 13.032082614117591 12.787085751166474 6.904921618431865 4 -3 5
550 1 11.76892423432895 9.651633737786884 7.218776726394236 1 2 3
598 1 10.162668706464025 11.065112369502446 4.884167228095736 2 2 1
453 1 11.511103495288223 12.528103527283172 9.321611259945458 -1 2 -2
484 1 14.202369524240709 10.795263691680262 8.867209692468737 1 -1 -4
175 1 14.276355318475037 10.08068557356911 5.971730767809995 -1 1 -2
885 1 18.45943549241289 10.069775174994842 5.7370681578553 -5 -3 0
560 1 17.07381747946122 9.819519643689253 8.257230407556941 2 3 -5
424 1 18.92260054060395 13.100570072898428 6.384711439599491 0 0 1
871 1 16.661025642647243 12.153647577379246 6.262382706168011 3 -3 3
352 1 17.498135224370465 12.3968535600407 9.437948616084823 0 4 0
605 1 21.219209103369426 10.575496675689887 5.414880214924382 -2 0 -3
470 1 19.76338032774282 10.992194744134032 8.523728647759658 -2 -2 0
978 1 20.795628185917533 14.009567322385143 8.755972267321386 -3 -1 -1
645 1 23.045974499489862 12.422284567277474 6.441377715627526 -4 -1 -2
104 1 22.78747784820741 11.321749573302482 9.245173919214825 1 -1 1
222 1 23.480298791482145 13.9678961445647 8.378898123604866 1 0 -3
171 1 24.334931844143828 9.564978771395994 7.274289447945999 2 2 0
770 1 25.830214849461566 11.694490274918904 4.745331455862071 0 1 0
70 1 25.67574390538557 11.76091622854499 7.71739233015437 -1 -2 2
207 1 4.06361824570889 15.805073663237984 4.874956671641 7 0 -5
764 1 0.6425755888274838 15.908728702861543 6.233068597525943 -1 2 -1
450 1 4.641707916777047 16.54714184179727 7.834929729716608 -5 2 7
648 1 2.553837930613327 18.15537519030782 5.471530976748474 3 3 3
512 1 2.248764915346193 16.43321823488085 8.083102874619806 2 -1 4
279 1 1.0652406990440395 18.892439289405036 8.183913607725401 1 3 3
574 1 6.476661575448255 15.1116599379398 5.985310774953275 1 4 -3
336 1 5.659574151840166 18.135503755283104 5.105489858593773 3 1 2
395 1 7.913291915901275 18.74584055363842 6.575617647888473 6 -1 4
495 1 7.952403914423256 16.184112865108606 7.915990433025307 -4 3 -1
708 1 10.553303353839105 14.631108724054858 6.312331003745994 0 0 0
504 1 13.81040492688818 15.861342636939732 5.930943223975327 3 -2 0
6 1 11.250328152404034 15.745235507139471 8.844165991602916 3 1 2
965 1 13.618920509687436 15.066113950632063 8.924814132498257 0 -2 -6
827 1 10.875240739600335 17.538509972670802 5.840152683041525 1 -2 0
80 1 10.145669021305661 18.405883339599328 8.982566360005524 -1 -2 -2
317 1 13.067517576556877 17.740288345132402 9.139455859950179 0 0 -4
459 1 16.553508742782324 14.760234637909035 7.846323106828752 -4 2 -6
379 1 15.619539401001635 14.27469909896503 5.023635512741715 2 -1 0
913 1 15.698412402889012 17.21397622262751 7.996669527941159 -1 0 3
829 1 21.382013694275678 14.710187785452915 5.7787905773818125 1 5 2
96 1 19.108348158442634 16.07330020521383 6.837822266765631 4 4 -3
76 1 20.678681024046167 17.4462935344599 4.97776432792246 3 1 -1
107 1 21.762680183202967 16.70891499200405 7.595677129217655 1 -1 -1
324 1 26.61190523698964 14.659789476625413 6.231636754367023 1 1 1
221 1 23.87759296862274 16.30949029799798 5.232831053067784 -2 0 -1
838 1 23.842566207727028 18.39596270145129 7.353037372685149 -2 3 -2
390 1 26.619090626654792 17.31411299552605 7.897567822040663 -3 2 -1
642 1 2.558988551405442 20.526103106390465 6.0426500467695 2 -1 1
643 1 0.1465684083917114 22.892979090449685 6.526403954990149 0 5 2
273 1 1.0088320582583592 21.349234730145863 8.74674251193788 -4 -4 2
622 1 0.29791582716971665 19.419857290454182 5.920324382257979 2 3 0
746 1 4.03283222207674 19.308165835086413 8.372759033643195 5 -1 2
563 1 5.887977935538639 23.56678376350483 4.973274011921244 3 0 0
756 1 5.103364271059041 21.087556080408604 6.503729426859835 2 2 5
785 1 8.025747017886257 21.16231424125154 5.41031057638824 2 5 -2
620 1 6.745239803862639 20.064958079999922 8.406615051965293 -2 0 -4
967 1 7.247472467687995 23.54352003129901 7.680045421995141 -3 1 -2
100 1 9.47209157778604 21.410116712965397 8.66424211448903 5 3 4
969 1 10.925544251429194 20.802065601917356 6.242734238358993 1 2 3
111 1 12.596614752222221 23.240175237531837 7.195197176575016 -2 -3 -2
972 1 12.569861623420612 20.754517697222735 8.54023394910099 -1 -2 -1
448 1 17.57901823869717 19.566369504083593 6.400405789490257 -1 0 0
802 1 14.239610313043485 19.00518644106406 6.896021725040917 -4 3 -2
971 1 17.963181990630993 22.051676428747417 7.0298134061916375 1 2 1
280 1 17.491757978831107 20.93232319013388 9.31152003158361 2 -3 -4
358 1 15.193064030964349 21.98373467340144 6.982467383973444 2 3 1
254 1 20.732234575213525 19.2623932536215 8.210509780511266 -5 -1 0
84 1 20.507323616048843 20.66241840886058 5.323682208669759 2 -2 2
133 1 20.14602528479326 21.863611890038705 8.839294806800101 0 -2 -3
925 1 20.11631359969895 23.38432480530335 5.063813564550769 -9 1 4
146 1 21.91411382420143 23.087455033229507 7.549445275840233 -1 1 3
166 1 23.40665114926358 21.10558445291528 6.421843123905055 0 -4 -3
374 1 26.68077114112288 20.296240146525715 7.445984829023224 0 -2 1
813 1 25.519798691924922 22.891282730663633 6.752429703727493 0 1 3
776 1 25.486906662008135 21.57994130459745 9.26550486900012 -1 -1 -1
584 1 3.138230722673777 27.495859347080373 6.88695546592362 -3 2 0
992 1 3.938001143153289 23.879974964109646 7.807968230281978 -2 -2 0
339 1 3.1759060772919323 23.993638004825264 5.11445683191782 -2 3 3
412 1 0.8660635896500987 25.776258871890054 7.325783632356516 5 1 5
750 1 5.517887480110099 26.04893704033408 6.823791516823394 0 -3 0
640 1 8.730175762750813 26.71127402494797 6.97978936727934 0 -1 1
244 1 8.832944158029816 24.73820109103065 4.9626289126105405 5 0 2
266 1 12.264120132965115 26.273402922397583 6.369067652758491 2 3 -2
13 1 10.18738427240381 23.93770066399237 7.833093155059281 2 -1 3
372 1 11.280166552330591 26.559428774060436 9.012321072139805 1 -3 1
371 1 15.358883730959525 27.299757490811658 6.995024162731853 1 3 2
258 1 14.26268412635071 25.06324215413583 8.326847039630785 1 3 -1
464 1 18.206488392201493 26.976665662564418 7.359581277020334 -1 0 -1
345 1 14.657183707950315 24.136054707657298 5.295288026136066 1 0 2
644 1 17.05681088768245 24.204266129779864 8.296506816290702 0 2 1
385 1 17.686846628325316 24.62028281856117 5.2819417334081304 -4 0 -2
172 1 21.265951098824097 28.08110053448933 7.426636894248943 -2 -1 0
717 1 21.81710650293546 25.855693518043676 4.918759864699704 5 -3 4
572 1 19.96128776418613 27.516166640940565 5.110866440325525 0 0 -3
89 1 20.26405365046054 24.862776862234064 7.272667860439951 0 2 3
998 1 23.2762947943917 23.793822458557987 4.9308413323571605 1 2 5
749 1 23.29694499809118 25.48275934573549 7.371567564941438 -2 0 1
896 1 25.43103152780384 26.050450763124687 4.985822119914454 -2 -1 -3
668 1 28.061220230752845 27.839899039902036 6.165212859990716 3 1 -2
277 1 24.554894608488965 27.701491138833305 6.971721732043496 -2 1 3
9 1 26.323355202160737 28.086293261754815 8.627004445491375 3 2 2
616 1 26.572341004728 25.555418722592833 7.528145266732508 4 -1 1
295 1 23.833881759743107 24.02523061524904 9.206357166713108 -3 -2 2
993 1 1.8649991922906632 2.8459814785754296 10.013610952169396 -1 -3 -5
58 1 0.8365525163047515 2.194577861575281 13.44128324748296 5 2 3
721 1 4.139161705834716 2.0435883031656448 12.408245406886351 -5 9 0
108 1 6.815812315896921 0.10966917196929425 11.921483801383582 7 4 1
636 1 8.49031693255283 2.056246710061249 12.40546888645567 -2 0 -6
916 1 9.337379599578364 4.52578864768077 10.406763120241294 -2 1 -2
864 1 6.292904711631966 4.156154843298091 11.658731362269586 2 4 -1
426 1 11.323373455692144 1.8936725101993206 11.404490073575158 -1 -2 1
873 1 13.357615131589673 1.6098954414131532 9.780630078008091 -3 1 1
940 1 10.490258694088425 4.1263046862478125 13.678411025910949 -5 -5 3
290 1 10.616284315718183 1.0987918832940171 13.980743963989905 1 -3 2
819 1 16.51575296334852 0.8334794837306344 11.947506198377559 0 3 1
397 1 17.275291466652032 4.038241405891873 12.869020624628646 -2 5 2
793 1 14.823843302320318 3.7357514755097863 13.076017969649998 -2 1 3
400 1 19.11486840588344 2.4659624083778966 10.779444564082363 4 2 3
19 1 22.38204899102007 3.877729001652943 10.418887227062136 0 3 3
38 1 19.232023075290734 0.6850838829549674 13.493928147748592 0 3 3
582 1 22.080700753937673 0.8015127698118054 11.862915077783551 0 -3 -3
817 1 20.66665110162436 3.210240418943241 13.249195721506368 2 -3 1
340 1 22.691959688779495 4.665256985506082 13.651904368731046 0 3 5
779 1 24.096241297514336 2.176884930345648 12.191277108644035 2 2 -1
160 1 25.419670840580743 4.351762708758505 10.602760769762636 -3 3 -1
627 1 26.53934999171929 2.9119739046259467 13.098560945290041 -3 -1 1
542 1 27.36889399265475 1.6713003619696716 10.65269682269227 0 3 -1
727 1 3.577346169786437 4.908417494714898 11.268016651712989 1 1 1
590 1 1.8758325893109826 7.092914046696319 10.500430822334907 -6 0 -2
518 1 0.034671675566045224 7.7157242439339 13.819068121638043 2 -4 0
228 1 3.141047868890199 7.294985683962887 13.057442573074717 2 -1 0
549 1 4.328671890757722 7.630554528831599 9.9680207237081 2 0 -5
212 1 0.47343635859139077 5.0655950562687035 11.81358067700701 0 0 -4
268 1 8.808059233358602 6.700536111161963 12.106851508017511 -2 -3 1
477 1 5.9349712240802015 6.693823332365414 12.672297355518507 -1 3 -1
638 1 6.583261136351874 6.180618518493753 9.75601115099045 -1 -3 3
890 1 7.328952868889075 9.091443673957878 11.754805131613818 0 0 -3
611 1 12.381650970403847 4.922848058902789 12.421149534920433 -2 2 -4
36 1 12.600384773295715 6.69319825426073 10.328658707785657 3 -5 -5
190 1 10.616115547352226 8.522325050877377 13.266174858487833 -1 -2 -1
907 1 13.889313718282276 9.245013084619062 13.384738145654106 4 -1 1
673 1 18.72414110500851 8.030172960727516 9.55486373234827 0 -1 -2
386 1 15.715729420376546 6.055906326833763 11.283070258393746 0 2 1
496 1 17.842571056634334 7.355025989993405 12.581757207884236 -3 0 -3
309 1 15.20853398994533 8.735949098728023 10.639251243682395 0 1 -2
843 1 21.718467027443488 8.461645455418724 10.910168744229747 -1 0 3
29 1 20.249763221161636 5.07347721510504 11.352969944665702 0 1 -5
575 1 23.172969347587614 5.928416133902198 11.83791073966991 0 3 1
202 1 19.875385303831546 5.913253206369112 14.079696630393595 -1 -3 0
204 1 26.13114369145079 5.666158064255741 13.365233864176748 5 -1 3
468 1 26.99805908670412 7.633961130654423 10.949505246917298 -3 0 0
530 1 24.222846745951827 8.435613181316223 12.255324406573754 3 2 1
69 1 1.5842110427996232 10.01731987370507 11.493202987669797 1 3 1
943 1 4.546286659936662 9.937624048480448 10.892290196899399 -5 -1 -3
310 1 2.8777396897817145 12.137978521863214 12.72690437925847 2 0 -2
985 1 0.005664773638734744 12.034613953368588 10.376703910480101 0 -1 3
91 1 3.0773294937024276 13.80970125565688 10.427733141508977 2 0 3
991 1 0.08970401871333387 13.136438333363367 13.342958796061529 3 -3 -2
196 1 9.27093726613878 11.130954098297154 12.784957171861976 2 -1 2
986 1 5.975168428734959 12.53191928563703 11.187248381039081 -4 -3 -3
893 1 8.554404146885956 12.97580161876906 10.27382986724119 -1 -6 2
835 1 4.768580095705516 9.71477188093929 13.710843746200863 -2 -1 0
320 1 9.87622727854136 10.430260530926732 9.752823172197013 0 -1 0
23 1 11.037864787742713 13.315057657110735 12.14274381481569 -1 0 -4
294 1 12.283541915906477 10.857192109001367 11.447670047862768 1 -1 0
210 1 13.951912408748324 12.830392010595205 13.600949665655861 2 1 0
347 1 14.812662002672845 13.072126073453774 10.62407056799996 2 -1 5
463 1 15.841963823069266 10.667591285839906 12.306775077348124 -3 -4 2
981 1 18.66782846547932 10.266946672571525 11.217537479968955 2 0 2
634 1 18.000693311876695 12.6005937152937 13.619859159802827 1 1 -2
436 1 20.60306804970634 12.27402787700281 11.023802282147447 -1 -3 1
61 1 23.165430467201446 11.517237014006112 12.381352028234714 0 1 -1
672 1 20.735432960877507 9.651500594329319 13.734841010200151 2 3 2
618 1 23.108076961323118 14.124524095336328 11.02132173116618 0 0 2
930 1 25.53517844477409 10.630166527078249 11.16706821562961 1 -1 -1
635 1 27.751074259091748 10.537801803777894 12.889366382747163 -5 4 2
674 1 25.83989416409525 13.42860065023557 12.290333454574071 2 -5 0
482 1 26.393013784459242 14.136103792676513 9.692833882649984 -2 -2 -1
233 1 25.462275687554985 10.161988869425734 14.005010067770293 -1 2 1
719 1 0.6216362851811251 14.82656982723475 10.659743079894822 -5 -1 -3
181 1 3.8625645422460995 16.668998377876747 10.381018723417595 0 -1 1
947 1 1.120055067869856 17.724426231010728 13.299239470319366 -2 -2 -1
256 1 1.931700504678166 14.752681808515863 13.339650093004877 -3 -4 3
934 1 4.306447347393673 18.83758454858307 14.172232452026847 -2 0 -5
269 1 8.063785504772042 14.783283890934486 13.201090602429751 2 4 -1
227 1 6.013577050975364 15.318790204581138 9.86936315806461 4 1 -4
809 1 6.002620582144291 17.06080055939954 12.352984860691455 -6 -1 4
919 1 5.046613850703517 14.590055143141104 13.097784718078437 3 -2 -4
849 1 6.946837806151032 17.992670958650574 10.057529211118414 -2 -1 2
895 1 9.079604236596191 15.791243797404482 10.516290821369525 -2 -1 -1
43 1 13.135955583030645 14.66542890312125 11.746863589113286 -2 1 1
528 1 9.5182907033162 17.64064866591382 12.8777253420327 -1 4 1
425 1 12.025784917369188 17.34148138140497 12.003909173123988 -1 3 1
503 1 10.972618861342175 15.454116144072751 14.203355420289965 5 -4 0
671 1 18.15700600467321 14.790018425490508 10.332174205509597 1 0 3
255 1 18.307177520803847 17.770444216123142 9.59283367463331 -2 -4 0
936 1 15.463435907482335 16.320062581891147 10.562811993281702 -1 -5 -2
841 1 16.03731963735471 14.5868824213406 12.569797675843718 -1 2 2
12 1 17.910668862398985 16.749398844268693 12.480040567630853 0 -1 1
526 1 14.773866740701989 17.75136846443049 13.192774297225391 5 0 0
729 1 20.133799673481082 14.54261265143683 12.394796016049689 4 4 3
845 1 21.593208546989374 17.12677343805861 10.543540145357651 2 0 -1