LAMMPS data file via write_data, version 2 Aug 2023, timestep = 15690000, units = metal

4003 atoms
4 atom types

0 49.42095145851651 xlo xhi
0 49.42095145851651 ylo yhi
0 49.42095145851651 zlo zhi

Masses

1 6.94
2 22.98976928
3 14.0067
4 1.00784

Atoms # atomic

1946 2 3.7837243217500798 2.4300830672540568 1.4839920395664516 0 -2 -2
3917 2 1.1418299025833252 2.7609929408713016 3.8500038479395844 -1 0 0
1469 2 1.219562842628863 3.8114877174726387 0.506776341927097 -1 5 1
1042 1 4.874963046254831 0.4973564743347215 4.017509206091689 -5 -1 0
3512 1 7.595983185047418 2.0232713855090867 1.7340084558056073 0 -2 1
76 1 6.015091743475945 4.617892708922623 2.6896169239741545 -2 -1 -2
2053 1 8.39746659947766 3.871421481893738 4.5566578518438465 0 6 -3
285 1 8.116663243428452 0.47193195363537943 4.45283617772019 -2 -2 0
174 1 9.949685013960714 3.064703169398091 2.3391295541825468 -2 1 1
1290 1 14.565440699049738 2.6727511320325283 3.0797868600956053 1 0 2
1623 1 11.469262570155232 1.3028320765788755 3.6707483323957133 -9 1 0
1185 1 13.486536242915557 1.1622582958849215 1.1015540225692726 1 -2 -1
2079 1 11.617231749090934 3.8406619058365234 4.560709162501233 1 -2 4
2964 2 17.78783411582601 3.1617310095087037 2.410702702795812 -1 1 2
2186 1 17.097796013070102 1.0589275567772942 4.158875170425541 5 5 -1
500 2 16.505786509226184 0.6399927165758205 0.6091218782207345 2 -3 -1
420 2 20.399314220346362 0.96042608076833 4.7511818210295 7 -2 3
3970 2 20.692410781959957 4.513395984233537 1.8605467078823286 3 -3 2
3717 1 20.08893453973991 1.3129421637482366 1.738400122851257 2 -1 1
943 2 24.459360774455522 3.768033443950631 0.04172871950336781 6 3 2
356 2 23.593176590842063 1.5864201221201484 3.2826199916073007 -4 0 5
2301 1 26.00524234178184 0.07736019184250534 2.9366968651299064 1 8 -4
3824 2 27.097529575328213 3.4110829497628563 2.6443656654563905 2 2 1
407 2 30.115835232831014 2.8063156234508044 1.1623753525031681 1 4 -4
1246 1 32.78366978102448 2.8647270173038013 3.433003522957514 1 -1 2
973 2 30.995842656325124 0.7628910538855608 4.6500464379617625 0 5 3
3519 1 37.84444072181956 0.8895580564721786 2.1700890100572616 -3 -4 0
1746 1 35.681925065613704 0.44698379528771803 3.9986354648322124 -1 -3 2
2014 1 34.63517595558088 1.6054332581455695 1.7955050016139786 0 2 -2
1635 1 37.08282067774134 3.4845596504264273 2.37470241178135 2 -4 -1
1903 2 40.65890265556346 4.710379396175966 0.9193034374827331 0 2 -1
2352 2 44.460990722077256 1.312951796657903 4.235870651354786 1 2 1
257 1 41.52441893472829 1.1145653768641317 1.207025019906603 -2 -1 1
865 2 44.47288922233685 3.7363738629748817 2.207573577046875 2 0 -1
1098 1 40.71431440388031 2.476647997830862 3.6987402671015497 -1 2 -1
1327 2 45.03872862444296 1.7098060875643746 0.10265727446438792 -5 0 3
1871 2 47.660799542189835 2.936485026869339 1.8328089592775492 -5 1 3
2708 1 47.40669300065393 2.3011996835575896 4.595133349714801 1 2 0
313 1 46.72592998808381 0.20148217859206596 1.972566404084567 0 0 0
982 2 2.8214704886302227 6.1741865791267205 2.400150195604449 -6 5 2
887 2 8.331679142149277 5.554246688849046 0.8515208900081729 3 1 0
710 1 8.172547485996082 7.274987566946377 3.304460861873701 3 -1 1
1183 1 9.69986845252833 8.470271962508063 0.6472069975830994 3 0 0
2983 2 5.573945264425173 8.827627903775614 4.151955991355765 1 4 3
1667 1 6.397358160624743 8.258575635898595 0.739441034794834 -1 -2 0
300 1 10.912998294346199 6.460434549261973 2.5882725394383685 -3 -1 5
689 1 12.797457520764844 7.7024928159748045 1.0943951852328035 -2 3 2
2706 1 10.595289992107478 9.13184948403862 4.138553052624787 2 -3 -4
3094 1 12.728243277500804 7.373388872178917 4.739743607293641 1 -1 1
1775 1 14.926327534641137 5.624352227611612 4.095267157855576 -4 -2 -1
1434 2 17.99059374118523 7.319556787786034 2.0532677491641698 -2 1 4
1682 1 15.408336901845363 8.205787093985926 3.1616004360071455 -1 2 0
1556 1 18.22902870699888 6.596085958485193 4.86408288262396 -4 0 -1
3791 1 15.578677185323611 8.51148862813832 0.027889251115116996 -1 -3 1
3331 2 15.613759341131473 5.129556359887943 1.1942495126192965 6 -4 1
928 2 23.99846128860534 4.953292598614574 4.13603646936325 -3 -2 0
3843 2 21.173906138295205 7.385024045956908 2.8463075381944405 0 1 0
3660 1 22.895055124603985 9.775818222615237 4.179826822785633 0 1 -4
3297 1 24.80114946863627 7.800908831567123 3.099678914870531 -2 0 0
1540 1 26.046035909111392 9.612670375831168 3.6341652481660125 4 -3 3
1697 1 28.303000205671918 7.056968369276071 1.4985537096435784 0 -2 -4
354 2 26.672318483602574 6.146847819341594 4.664781380605702 -1 3 1
3999 2 29.167021091543937 8.51218073043685 4.919025575105088 0 0 3
3976 2 26.19192501852389 9.50134829552464 0.5275526460626676 -2 -3 1
515 1 30.258876333012807 5.861960423098364 2.5259264532175036 3 -1 4
370 2 31.939163384735902 8.71357273195225 1.986309500823954 1 -4 -1
3389 2 33.29931669552782 5.502771470494136 1.5626655079780813 -1 3 3
945 2 37.546196553048965 6.942629300480276 2.3240448045676008 -6 -1 -1
3577 1 35.08149736878069 8.367456694391327 3.0239122225618797 4 0 -1
188 1 35.82754408976937 5.6872929875582106 4.683891512828301 -1 0 4
990 2 42.83984361948266 7.1392487064389485 3.6332197033534235 -4 -1 0
932 2 43.586075244457035 7.453267233491916 0.7572947090019077 4 0 1
2870 2 44.32460314855391 9.595711987948619 4.511186679085464 5 -3 0
3807 1 39.59360180817614 5.2150793916505425 4.859878951748344 4 2 4
1465 2 40.45981268956808 8.860679026006638 1.367216786386999 1 2 -1
829 2 49.41970902653392 8.03713264153621 2.0108037332825006 6 -1 -1
2912 2 46.423319356390564 6.664459155416622 2.763753416748965 2 0 6
3408 2 49.266439695668275 5.268583815371478 4.3241789320104775 0 -7 0
2515 1 2.1187278105200043 10.638842367321512 3.2595967325311785 -1 4 2
1291 1 2.4219737452388155 13.286577762001874 2.6680580636626052 0 0 1
1005 1 4.474125078760019 13.63712363257434 1.0299585872284915 3 -4 0
3510 1 4.303197153893431 10.626401157343308 0.7543582896391828 -1 3 7
2288 1 7.239598437115207 10.576105824562253 1.502162331833259 1 -1 2
1248 1 6.071234450311453 12.542476112205684 3.4370252168771342 -1 2 -1
10 1 7.761721888763461 13.538853205543004 1.2023307919731252 2 -1 0
808 1 9.433710652390616 11.394302576375196 3.1695824876283902 -1 2 -1
3014 1 12.754575831054035 10.334971013905955 2.49090744285027 0 1 -2
1187 1 12.668148812703821 13.641195681489625 2.612735878663709 -1 -3 3
1939 2 10.776918650750446 12.005298566366008 0.05535289384726787 -4 3 3
3761 1 15.836058868558364 14.770492514449137 1.8883001200429403 4 6 2
1607 1 17.03218889703723 12.377027924642691 3.750752728374884 -1 -4 1
3570 1 15.8713482156851 10.452608292169227 1.7166763207997813 2 0 0
3584 1 17.74638053648728 12.800740489220084 0.9298980333703478 0 3 -2
3552 1 18.307721902349616 9.920031794549871 3.2543990271608303 -4 1 2
3748 1 20.6076663128093 11.13841651154033 1.634299918166889 3 -3 3
1025 1 19.83421610473682 14.48641978359976 2.673761655251639 3 3 1
3537 1 20.441650461206912 11.345956977178986 4.385055926626518 0 2 2
3781 1 24.188946731138138 12.674242864410326 3.0735225425906156 -5 0 7
2563 1 23.152642583408046 10.19367313688708 1.4875147005385698 1 -1 -1
3020 1 22.395374279320553 13.199012615720223 1.1810357060839227 1 2 0
3780 1 26.652985506635208 12.822240444445479 2.6024289606599638 5 -1 3
32 1 28.918253355710007 10.643974094848641 2.2125677787229776 3 1 0
3553 1 25.336594661298477 13.042834153562149 0.5067078527340233 1 2 -1
1195 1 30.04163565919928 13.64212368636944 3.5382316171689467 -2 -1 -1
1205 1 32.37232187141975 13.002133789414767 1.4593247047280757 -2 2 -1
1559 1 29.71262905644295 13.106458538230415 0.8182388358184569 5 -3 -2
1825 2 35.26540627346179 11.578629444465587 2.7398622329258386 0 -2 5
3937 2 38.3124477656826 11.782530789769364 2.9706274654026923 -2 3 3
3191 1 39.11790123227295 14.14893857993925 0.20573259328847324 1 3 1
1226 1 37.035998798377335 14.779682759452166 3.0805102311624264 -3 2 -2
1236 1 36.328109716552575 13.816234656486506 0.16180732061385616 -3 1 0
1889 2 41.56138387437807 11.696851274032364 2.2224546598289714 0 5 1
2483 2 43.788641990704136 13.818600524600381 3.369909287547859 -4 1 0
2653 1 41.83755027095262 14.75553590282902 0.35139852524052007 1 4 -6
3075 1 40.41806174593891 14.275109193097405 3.0538738305175754 -2 -3 6
3588 1 47.49989118405969 10.49668684261058 4.090203220557143 0 -4 1
1792 1 49.337014714419595 12.447119759505428 3.059339881210056 1 -2 -7
97 1 45.46242120219313 11.028130268993516 2.2382707457559023 -3 3 1
603 1 47.17166494998297 13.733586765674486 3.2982845598190074 2 -1 3
40 1 47.381968868016145 11.682810316558605 0.5924732328864835 1 4 4
2740 1 45.48954693726403 13.693233958189392 0.39993829568430456 2 2 1
1277 1 2.079770374769602 17.43344244712865 3.433273611403313 -2 -2 3
3089 1 0.5749905263774151 15.549884475523967 1.99018992967428 2 3 0
2798 1 2.0416552858755934 19.220960864007452 0.802219205643823 -4 -4 4
3788 1 4.232073463312314 15.877424525030337 4.393612852717546 -1 0 -3
1166 1 3.2703478266103114 16.028226759942466 0.8623632582328518 0 1 1
748 1 7.348525847441706 15.413020510234452 3.829784728888544 2 2 -3
1044 1 5.004913951641053 18.618657265284288 3.055491479866948 3 5 -1
2720 1 6.297748615003178 16.67131859960003 1.621565843183641 -1 1 0
2287 1 8.236412699032407 18.107541455836465 2.7759515621940904 -2 -7 -1
762 1 9.22309969741368 17.02163806493752 0.11917519717890342 -1 -2 -3
1388 2 12.191002748768593 15.408880584446539 0.04677549625986984 0 1 2
1271 1 11.197089197138988 18.46161805164256 3.6944592199689246 0 0 3
1112 1 13.886564150403215 16.41655548684393 3.2080983610300753 -2 1 -2
751 1 10.290922444797735 15.620981474180738 2.603910317567125 0 3 -1
2570 1 10.294752459120676 19.50062181333639 1.3685379952638255 -6 4 7
3447 2 13.578110675334393 19.505518077581275 0.9283624413107747 -4 4 -1
765 1 11.381593430334597 15.882993056002094 4.827112814755985 0 3 -2
1522 1 18.531353335769555 16.76260984503033 1.5614127748907058 -4 0 -4
2190 1 16.283953704781656 18.326006329588132 2.573680626415685 -2 3 4
2658 1 16.992975379365383 16.32032077938506 4.24762644382533 -3 0 3
1613 1 15.138078996114151 16.810601268574082 0.6565244448860655 -3 2 -5
2759 1 22.060987386514068 16.285052456607094 3.078916460719077 -2 1 0
2739 1 21.815559934093383 17.540957601802578 0.6892613722335827 0 -3 5
2315 1 20.31207790971182 18.94005901905851 3.697349414393824 -2 -1 -1
3123 1 24.792860575494913 15.419072585958395 4.057850797728071 -4 0 -1
153 1 24.772605837256524 15.763295507614128 1.0360833879596658 0 -3 -1
3205 1 27.60750174242526 15.270911198139796 3.9989011417334455 1 0 4
2316 1 24.71385503093384 18.36182185541784 1.7849904875912845 -2 6 -1
2380 2 28.143680670836275 18.988386448794582 0.6645781634447785 -2 -2 0
169 1 27.613590520240415 15.399636568518352 0.678709803467471 -4 -5 1
2541 1 30.70571272356485 16.36899636510666 1.4759762721475507 2 0 -2
2237 1 32.40728846267661 18.73835873168105 0.970683591190752 -3 8 1
1506 1 34.477893781003196 14.856154624107141 1.9641076110333677 0 2 -1
1287 1 32.45645243632295 15.542523949775385 4.396977717018528 2 -4 -6
3284 1 32.39792651452631 19.1635725263581 4.015203788901894 7 -1 2
713 1 34.578720159757 17.415967745099294 0.08692957180958416 -2 -5 0
1084 1 38.50866515554288 16.69295324974617 3.144609263500372 1 2 -1
2552 1 34.87332214667496 17.80206868042602 2.9221691361328466 6 -1 -1
2108 1 37.3547195821676 19.131415207311036 3.315596758945602 5 1 1
2147 1 36.43888903285913 19.3138327530265 0.5080509011544965 0 -9 2
321 2 41.63924399634242 17.27044647580267 3.548696880934067 -1 0 6
861 2 40.37378075134255 17.085204426210005 0.5538774461551754 1 -2 -1
3372 2 46.42254971811121 16.420044236547724 2.2261062055506904 -1 1 3
2209 1 49.32279538212188 18.785763239056113 4.226383850917963 -4 -1 -5
1207 1 48.77031939259731 18.68284707032239 1.7935377811522442 -1 3 -3
1282 1 46.04741628689249 18.80491774587226 4.597820803201478 5 -1 -1
1092 1 0.9585876798017098 21.918093258461393 1.6897445104931104 4 0 1
1335 2 3.0210238445824626 23.62819814679986 4.353517908952313 -3 0 -1
2702 1 0.7605101195109732 21.46675743047195 4.874364744749684 -1 2 2
2579 1 3.6355633698602428 21.343733744619374 1.7552880563242848 -3 -4 -1
2937 2 0.4441468729823563 24.3700828182993 3.4512159699024396 2 -2 -4
301 1 3.2115573150039167 20.054411887253302 4.700041303732719 0 -5 -3
2111 1 7.281911500591079 20.50401801409429 1.7387165795308044 1 2 1
3672 1 4.968743473589436 23.73148833534022 2.3943713511317357 -1 -2 -1
608 1 8.185748119449864 22.631271542731003 0.305047410584166 -3 0 -2
750 1 7.595909688675206 22.91123336805612 3.5086671446677404 2 2 2
2121 1 5.4506738901210925 21.654727520962204 4.5439437452483755 5 -2 -4
1283 1 12.603194509891777 21.4175121519373 4.048233021607041 -3 -5 5
1812 1 10.621158056381946 22.6287445927513 2.779677252790789 0 0 1
2631 1 14.599588194711389 23.84740408613042 0.5585108724947087 -3 -2 4
532 1 13.673846610063423 23.85887802668677 3.1647577245050256 -2 5 3
3027 1 17.541127235013473 20.318533380846496 4.637690567574687 3 3 -1
1177 1 19.19172607166336 20.6877918096903 1.4133537866149735 2 -4 -4
3478 2 16.1447567356914 21.747086197509965 2.147658666513453 0 0 3
2853 2 22.318278007862123 20.428009572750092 1.7434063226339127 -3 2 0
400 2 19.823211736307453 23.237462212249437 2.795322338664711 -1 2 6
1752 1 22.494409305969608 22.365980177879685 4.358876884841681 -1 2 -3
2532 1 23.583891069670482 23.672921857622995 0.4912801128250549 -3 -3 3
2868 2 24.9975581650925 24.103393845923097 3.2272785864099642 0 -3 6
129 1 26.04537357108809 21.441946878288483 2.0525077598036274 0 -2 -1
2390 2 29.29710643797598 20.389688974169992 4.77041122136243 -1 1 4
2902 2 25.66039774134876 20.45615600204567 4.717210908193457 -3 1 1
3366 2 28.56156851556384 24.569684803555134 4.525345596015959 0 1 0
2835 2 30.960326513375847 21.81680355455145 2.504602375810146 -1 0 3
2214 1 33.88079130757488 23.091896606097077 0.5806021125928389 -8 3 4
2089 1 34.48530317428136 20.679434085946713 2.7756511498875764 -3 0 2
1917 2 34.68624833467613 23.787846720413715 4.111511459088944 2 3 -4
326 2 38.13728211781899 22.35075605376702 3.6182411767631146 4 -4 0
942 2 39.32548325169328 20.99638250188111 0.6098866682400804 -3 -5 4
1144 1 40.86177468057651 20.745773932077725 3.637177738339088 0 -1 3
2054 1 43.69855141947212 20.0066183810672 4.408802352711196 2 -3 0
2690 1 42.79621087217532 22.15142236736217 1.8005481810914914 1 -3 2
3165 1 41.87923982297504 24.352070213446396 2.372401401031148 1 4 4
3557 1 44.90891313259807 19.954822960625815 1.4797899222240618 1 3 3
3456 2 45.67334775693645 23.152729436466 2.7389404393679304 0 2 0
2267 1 47.34425387089665 21.185402965318634 3.2632159991296636 1 1 -5
1279 1 48.19248476044468 23.60598368753968 0.6206102945161464 -1 1 3
2745 1 3.1864189360998116 26.50188317355534 2.336492196394136 1 0 1
293 1 1.080828702078113 26.39781404962011 0.6017238921058014 0 2 0
477 2 1.5996292919106687 29.480305263722823 3.5288574999029896 3 -1 1
2487 2 4.6139790731394115 29.449358667417535 2.261457651698394 0 -2 4
1035 1 6.422196960114973 25.430871904137206 0.498348166564255 3 3 0
1681 1 8.478467646098261 25.673915282531514 2.1528510859655148 1 -3 3
906 2 8.296236854695216 29.335248167903835 3.021552274271478 4 -1 2
3948 2 6.1341993446286995 26.318873107046755 4.2270145442855585 -1 -4 -1
1549 1 13.210338802792602 27.101147198392592 3.7382724865172556 -1 1 2
3913 2 12.027678176397188 25.343612009688552 0.9010953077510068 2 -1 2
11 1 10.882588206274168 28.46787319628179 1.8066082876315699 -1 3 4
2086 1 10.398861971818281 25.877340751919157 4.226978653610992 -2 0 -2
688 1 11.89126900834885 29.389020130802788 4.695773032143367 0 -1 4
3394 2 18.38522198884281 26.692032715705427 0.7800971457089941 3 2 0
1258 1 16.062835614564108 29.42358565303615 2.948755980782345 -1 -3 -4
3904 2 19.360756102282437 28.550452113680137 3.2193874772869204 5 4 1
1379 2 16.288755080029265 25.128477035137266 3.9739502084631946 2 -3 -2
784 1 15.475067375008976 26.48564697519226 1.5512780461554838 -3 -1 -1
117 1 21.850841971602772 25.56164695649476 1.6473896243908628 4 -4 -2
1466 2 24.056080532544218 28.92742285485151 3.490313146118806 -2 -5 4
3496 2 28.630286323852722 24.713254775156155 1.1650813175923949 1 6 -1
1973 2 27.048391938045537 28.35763153562306 1.5060566334900696 -1 1 -6
789 1 26.839246568809617 26.892985114882695 4.450182502832506 0 4 -1
1933 2 31.152929679937856 27.861758413133842 0.23195192309487486 -2 2 2
1731 1 31.709432251320244 24.744445177831107 2.9677846679976874 2 -3 4
1972 2 30.359175745311486 27.664992483046593 4.087269185752734 1 3 -3
2406 2 34.359004766654884 27.094332778696334 3.0009617795384322 1 0 3
956 2 36.46665727440269 25.201361676266487 1.6842233558169688 -1 -3 3
2256 1 37.73482742641003 28.401782091145726 4.1545022751756635 -2 5 1
2920 2 35.260806237574116 29.148859604669404 0.7817937007042293 0 -2 2
346 2 39.194917440265165 29.549853016076806 1.2232727825597445 2 6 2
1507 1 39.598054514375775 26.270390611230557 3.311216074422735 -2 -3 1
3462 2 42.74995951765007 27.773249033808654 3.1523719768972045 -1 -4 -2
2283 1 45.61343992332321 26.066598298420562 1.039584639263114 2 -1 1
1360 2 44.81197796458697 29.576966185364864 0.3056597590850374 -1 0 2
1486 2 48.19318425828368 27.573428090857206 3.2636338632406607 -5 2 4
59 1 0.12129385362053112 33.64498009800826 1.5138560391382212 0 -1 -1
2434 2 3.673917761531026 32.699927425687775 3.6291239373303945 0 2 -4
3822 2 3.1256587630649046 32.953534979203056 0.19749838125496882 -2 4 7
628 1 7.17326942508445 32.138537710681845 4.441004610062859 -1 1 4
2484 2 7.788623209064029 32.0717291360617 1.3863708525783527 -1 7 -1
1197 1 13.238001423422284 29.72425316781913 2.093409240233639 3 1 -1
1077 1 14.522092161257103 31.807848943341863 2.414276107632757 3 -2 -2
2897 2 11.624384029073116 32.52760303464533 2.96078383414087 -2 1 5
2892 2 17.191442181047545 32.69844865524688 1.7548329823510462 1 4 0
3052 1 19.373749907393748 33.22329978810254 0.13388058284095353 2 0 1
1355 2 23.280138628647535 30.323634145561712 0.9525636970631165 1 -4 0
1951 2 21.37800991603715 32.124473406720554 3.328061428259724 5 1 7
37 1 24.54898378000495 33.68284016754854 0.16507987060133816 1 1 -2
1895 2 26.16196025258856 31.81972053286563 2.815060075401735 0 -1 -1
2715 1 28.68429417080241 30.208550252390676 4.55869044664604 -3 2 3
3377 2 28.445284790467262 33.0589480161894 0.8482890362041774 3 2 0
3958 2 31.420304715340077 33.32863428630295 2.673280562261194 -1 -3 0
2229 1 34.28416509279884 30.086243492503105 3.3026738032347858 1 -1 -3
2239 1 32.51001746476227 30.915276476500637 0.7032054768801629 -1 -2 -5
1517 1 31.50004268824173 30.385503018037937 4.2367657806228145 -1 4 5
111 1 29.96761412758752 30.2899874692561 1.7636914298851072 1 1 -2
271 1 34.80682571553807 32.59733439148666 0.8111352504236098 0 1 0
141 1 37.468581597089425 32.350140264746805 2.063252832300486 1 -3 -3
2556 1 36.48878660063216 31.687565575151954 4.739175196349239 0 -3 -3
2996 2 40.714023753261365 32.48742034675945 2.4936094550660135 -1 1 -1
2160 1 43.2979929187582 30.024709900307425 4.720285099281776 -2 1 -2
2138 1 43.35349522613606 33.2825378619374 4.92315219561279 -1 -1 2
352 2 44.41616874294775 32.92579861340334 1.8557707302977684 -3 -1 -4
3477 2 48.09484746969839 31.048617022083842 2.6584383127672204 1 -4 1
3573 1 46.95363197589437 33.9545643772554 3.0399855076161413 -1 -2 -3
1116 1 4.021657606669342 35.827882961867545 2.9012002117943156 -6 -2 -1
963 2 1.899695023893915 38.741299488926366 2.9818872581997997 2 0 1
1216 1 1.3159155554663817 35.54649615087523 3.384984748054912 0 -1 1
1564 1 2.1027183867861132 36.39683760036358 0.6815629902569225 -2 1 0
2165 1 5.415654698124042 34.88195218420626 0.6548444251348179 0 0 1
1096 1 6.649145814384494 35.260499637479285 3.3269957325400825 0 0 -3
52 1 5.815453046011481 37.56146375233009 1.1750076951877992 7 1 2
1617 1 8.175425955457719 37.87766663608907 3.077632136040205 3 5 1
3861 2 8.933241943127952 35.14716355572066 0.701817511895643 1 -2 -3
2289 1 10.81188371842987 36.31246843494008 2.6757149806539906 1 -1 0
2480 2 12.388948493679305 34.596837486305965 0.11518897178861287 2 3 3
3795 1 13.953426475427825 35.13592346387149 2.8911929715024662 -2 2 -3
1768 1 12.359272827610774 39.00043239431373 3.6776606497720827 -3 2 -1
2201 1 13.072324512863387 37.786717890593586 1.4911037947419168 1 1 -2
347 2 17.830312758765103 35.75678834225555 0.7550142437662073 -2 1 0
2127 1 16.014917978234944 37.22864349127647 2.5476674117666347 -4 0 -3
2991 2 18.63762170450429 35.061887942224594 4.29342538472159 3 -1 -1
1259 1 18.88375857402518 39.240693881634584 2.6324999833892204 2 -1 -1
3175 1 15.769735523533786 39.2467230015118 0.49466390676684635 1 2 1
2329 2 21.505620886211354 35.79379862204165 2.2151513440164763 2 0 2
2604 1 24.42105999427677 37.558634716180855 3.4772683999050944 -4 3 -2
863 2 21.844734473051098 39.37449867785586 1.6781561314224023 3 2 -1
554 1 24.90918612205014 34.95550498612698 3.0186201822621537 -1 1 -2
702 1 26.67518027413631 37.696178074231305 1.1891329145637877 2 6 4
3729 1 27.76230647970075 35.337814399516056 3.2449786370226685 5 -1 2
104 1 29.234301657729926 39.222496204801374 4.5765928525978214 0 2 -2
2142 1 27.210832201304683 36.94860854002338 4.7313817232349376 -1 -3 3
1372 2 30.2319693751711 36.67274518361633 2.0994110241445707 -1 -1 -4
2342 2 33.545962751853324 36.0165914745534 1.0426777766630977 0 3 2
1833 2 36.93421801144794 35.52537343231596 0.9966171240080101 1 -4 0
1826 2 34.86393717689287 38.918759352864434 2.77339768484594 2 3 1
2841 2 38.28808449164911 38.278823624842474 3.3493591419965743 5 2 1
403 2 35.32910785008561 34.85912242430372 3.3027553795322473 2 -3 2
1459 2 41.470076564577695 36.60169911554173 2.211520389555409 1 4 -5
2124 1 42.812060170198755 39.41946764206413 3.5916031632641814 -2 -5 4
868 2 39.83196949879223 34.71961887028827 0.2658060961092128 4 0 0
3161 1 43.5411814687136 39.34212634074485 0.06038436187783758 2 0 4
402 2 48.5894595223869 37.391583057508925 0.4371273168466079 -2 4 1
262 1 47.488298448572834 37.21387795368218 4.5923901213847955 -3 -1 0
3344 2 45.217354265399386 37.44634061807822 2.5647444326777817 -5 1 2
1749 1 46.987093664323275 34.68912791794522 0.4513135518902556 -1 -1 1
3131 1 2.516178967562921 42.91616853207833 0.5037299955326838 0 1 2
1763 1 2.6878409936092877 42.73884986342566 3.63360417702654 1 5 -2
2295 1 0.5309901023306832 40.459242486557265 0.1350276907687347 0 -4 3
2750 1 4.704293964106984 44.18611901955127 3.3521236139709663 0 1 -5
1312 1 3.776897114540092 40.00471995700022 1.1432379227501104 -1 0 0
1320 1 5.269246795233935 41.39910308879639 4.134545717389056 -2 -1 0
2094 1 7.4499982259885416 40.805803580459866 0.7286586303711996 7 0 3
38 1 8.161869484973346 41.9371439116083 3.8919220195954383 -1 0 -1
120 1 7.4617293513822265 43.94370478765008 1.85069323868873 -4 -2 0
1014 1 9.710164510216703 42.66676707360134 1.059271652588414 3 -2 4
3148 1 5.296135810551524 42.36537443715536 0.2882429239784757 -2 -6 1
3534 1 10.39430108460599 39.77561031075965 1.8257450655373202 4 -1 0
2154 1 13.530287200938384 40.73037634476129 1.5751849766531567 1 2 1
3626 1 13.28307666203664 43.94114417295268 2.5252149467983522 -5 -3 5
3903 2 14.759611035377851 41.306748144789346 4.220481452425231 1 0 5
3555 1 11.630692276423037 41.858759122783994 3.8273984426082848 -2 2 -5
3143 1 15.299394324022401 44.26398672377002 4.347578178586581 -5 -1 -1
2132 1 16.046099173802112 42.94640469950395 2.050612401039346 1 -1 0
127 1 19.642166733778183 42.077283997343905 2.5317099946318535 -1 2 4
2139 1 18.74571116820924 44.249749658414274 4.702121634611697 -4 -4 1
3222 1 17.58500159797368 41.80415328063409 4.162202176684348 3 -2 -1
2031 1 22.767138022202893 41.56285256524658 3.567231100983961 2 3 -1
1582 1 23.630343236469987 41.32359657550717 0.05471872935525924 3 -2 0
3118 1 22.229177602145167 44.14937114242018 4.158012255025877 1 0 -2
1641 1 21.636447263801347 43.64207493715228 0.6959062260927322 -2 -4 -3
3827 2 28.560310196675726 41.20540088940055 2.030695125292692 -5 2 2
2829 2 24.94266148487048 43.15044859271613 2.3875852802357516 0 -5 -3
2091 1 25.285558163636512 40.200811606429 1.961078835017216 1 3 6
2325 2 28.278680432461602 43.09477674631466 4.819698054460362 3 -4 7
1334 2 31.682045387833767 40.33459260518213 2.593962484757998 2 -4 -3
3965 2 34.1534835539297 42.129914019985456 1.8139894839862587 1 0 0
1245 1 31.700119146476492 42.84756714353899 4.35252134558581 -3 5 -1
1501 1 36.05957950004483 43.578690523466626 3.3581396797394802 -6 -1 0
1174 1 37.46080646604169 41.381051225606996 4.10533343149346 -2 -3 0
1662 1 36.41392687885304 41.15124692360622 0.05077265311669521 3 -2 1
1108 1 36.04742310572802 44.00767481799 0.47095985841415855 2 -1 -1
3738 1 38.50589820381992 42.7473612372619 0.7818755737644512 0 4 5
1192 1 40.733207911105055 42.859232814209015 3.8536346201148133 0 1 2
3473 2 42.78260784088298 42.237714661989784 2.0972843069876728 0 1 -4
1720 1 40.208996429050856 40.10741788931987 1.9754422775041252 2 1 4
3022 1 43.36746420028949 44.136097200600034 4.488221911916261 1 1 1
3520 1 45.239346861543986 40.777611076783906 2.3384128613920967 -4 0 -5
2407 2 48.22238432783541 40.4657514543301 2.8133226804434472 3 -3 -4
1584 1 49.31700421124194 43.157185832637815 2.126965874132719 -2 2 0
2562 1 46.48620508735633 42.71427999465934 1.0292633378656897 5 3 -3
2041 1 4.275240946255668 48.066217864744054 1.2352988610106028 -2 -2 0
35 1 2.011802183534372 45.84319755958824 2.0592308598200164 5 3 -1
75 1 2.0789733664394747 48.37168518248891 4.448999030273953 2 1 -1
3892 2 0.49886164730794663 48.74296206535608 1.7469537470288559 -1 1 -2
2030 1 9.567275463687908 49.14578446944494 2.0309743746944133 5 1 6
577 1 5.7045327425011765 47.012115284455064 3.9309725941236042 3 -6 2
1541 1 7.283587856475838 48.170488456274484 1.7997266115761297 -2 5 2
684 1 9.1692972696379 46.57849076462724 3.885697174192031 5 1 3
1674 1 9.645340359735146 45.96454028587007 0.9240066569204094 3 0 2
2808 1 5.2153411203395 45.64085484479974 0.9711286411674959 6 1 2
2731 1 10.596480155538547 44.55601382312138 4.028341277833027 -2 -1 -1
1598 1 11.818880945429147 47.51370215796824 2.3291681835329285 3 -2 0
2049 1 12.623196204362964 46.189371506493764 4.563762211154498 -2 -2 5
14 1 13.743345759082606 49.003344809023375 4.783334884432857 -1 1 3
2735 1 11.950351462751538 44.62604105075766 0.38807444886100595 2 -6 2
1146 1 17.478441029442354 45.511625695736264 2.5942830580926315 -1 1 -2
192 1 15.208466785687262 47.08875453987733 2.9356541628335733 -2 6 7
546 1 18.495881542880436 48.46425633909185 2.792112251337559 -3 2 3
3711 1 15.163633265810388 45.01825519468065 0.7990708676803208 2 0 1
1659 1 20.660221839339723 45.61585037852033 1.7100967064983466 0 2 0
2597 1 23.321215101577284 45.67715124634098 0.47685653551435375 0 -3 0
2310 1 21.11228623970713 48.111097347119134 1.73044332986705 -4 2 3
342 2 23.921301376894906 47.23184487273828 3.374080552396067 -1 -4 0
2488 2 29.23077515074762 45.11922213444653 2.1877720630187847 2 -7 -1
2936 2 27.31791506848358 47.001455180606676 4.488613349969836 0 -1 4
854 2 29.138925180885376 48.75491371986697 2.771868825298434 2 -1 3
937 2 33.13232360898073 45.83494753712587 0.7936976103775621 0 0 4
1545 1 32.0673833060465 45.82625053380175 3.185466587695116 -6 -1 2
1099 1 32.967268612280364 48.70054053031694 3.180440626047159 2 1 -2
3900 2 30.84448448618287 47.53654747583868 0.4526520183858639 1 -4 -2
758 1 38.88941636706241 44.94058666772255 3.546258225226383 0 -2 3
2303 1 35.160416835312205 48.42476953624084 1.3082187980616415 1 0 -1
800 1 35.79839001134941 46.68489436302755 3.374801783580938 -1 1 2
64 1 37.954806564301094 47.50050044901086 4.42901063007238 -1 3 1
3586 1 37.59004018763733 46.28089969370314 0.927007279027039 2 -1 -1
1214 1 43.60773495725256 45.442076118332935 1.0531070799885602 0 -1 0
2170 1 41.64281282073289 45.46402167159151 3.7031260730472306 2 1 1
21 1 41.099519163518906 48.97817448323199 4.587135546077015 -3 -3 -3
1305 1 39.96798703585528 47.6668041394634 2.130332570894759 -3 0 3
3494 2 43.10802547857174 48.18228226564211 2.8476791386894456 -1 -1 -1
2009 1 40.71814005341858 44.740483869148704 0.44012457596568383 -2 2 -2
3092 1 49.16135992290864 46.19695330302254 3.5491922036202035 -1 -2 -5
2334 2 46.48292329660931 44.97964705191528 4.125287290787479 0 0 -2
892 2 46.27564909675704 46.4219562785641 1.234624856920762 0 1 -2
3681 1 47.90548637215502 49.00451449670082 4.424455154288554 3 -2 2
3176 1 45.620832902945544 47.743760948155995 4.516370756408879 2 -2 6
3422 2 3.955121566612999 4.082589588543858 5.822103865035856 0 -2 0
1693 1 2.3794148642514212 1.051087242928929 6.503250056207232 3 0 -5
1735 1 4.759312988232042 4.821859189597428 8.23576896430098 2 1 2
1815 1 2.337113793194967 2.7075489463820905 9.257679097947237 4 5 -3
3127 1 6.369902849886305 2.4645859345292327 5.709293010674458 -1 -1 -2
1688 1 7.443299524881132 4.3238201975948165 7.3318915309868835 0 -1 3
1128 1 5.274835224824814 1.755362009243948 8.048792801391647 2 3 -2
799 1 8.716060047750341 2.097663723814311 8.958926147418223 3 -1 1
2850 2 14.294144586696895 3.0596497329163004 5.793666012241402 -2 3 2
1056 1 10.144424784048049 1.9121347971911333 6.187642896133258 1 4 1
3314 1 12.434140828145136 1.745102435340398 8.111992305739205 1 2 -1
1653 1 14.163297719141555 3.723910023179041 9.560776437198088 2 -13 3
1260 1 10.643999655401604 4.039549193645242 8.73986039178727 -3 3 0
1986 2 17.505868582143055 3.4115597302498712 5.927912088564533 -2 0 -1
1928 2 15.945122554260697 0.7667989405189317 7.562458318734199 -3 3 3
3951 2 20.041244171604067 3.788115575784308 7.945805808176866 -4 -1 3
1525 1 23.60595749349889 3.3498620978480664 6.870255036807681 -4 0 1
855 2 21.95231747165392 0.06577908571241409 9.555113129179158 -1 -1 2
1854 2 28.647635408113803 3.9881928592193097 6.040646454066699 -2 2 -1
3865 2 28.60506731394295 0.9530124331553902 7.369558437742442 0 -1 0
616 1 26.236262566979406 1.7248912306243913 5.719675515173031 1 1 1
2129 1 25.182152899121988 0.1794675173322129 9.020057107157491 2 -1 0