(written by ASE)

1001 atoms
2 atom types

0.0      28.422298224662292  xlo xhi
0.0      28.422298224662292  ylo yhi
0.0      28.422298224662292  zlo zhi

Atoms # atomic

1 1 13.784700000000001 1.2540500000000001 22.4057
2 1 10.798 5.2820299999999998 17.102799999999998
3 1 13.563700000000001 23.575299999999999 3.64425
4 1 9.6966000000000001 15.3033 23.449999999999999
5 1 20.293199999999999 28.498200000000001 20.8157
6 1 3.70661 19.687799999999999 1.29003
7 1 5.6788100000000004 19.529599999999999 22.290700000000001
8 1 21.906199999999998 18.363499999999998 16.1754
9 1 14.3523 16.049399999999999 11.2866
10 1 23.210999999999999 13.710599999999999 5.76023
11 1 8.8237799999999993 16.952999999999999 18.214700000000001
12 1 8.3992000000000004 5.7843299999999997 15.361499999999999
13 1 12.7605 24.1599 28.005099999999999
14 1 23.091899999999999 11.6645 14.9886
15 1 25.049099999999999 25.575900000000001 26.8675
16 1 21.410799999999998 21.570699999999999 10.470000000000001
17 1 10.6183 7.4237799999999998 14.4885
18 1 7.6741999999999999 4.6615500000000001 12.8728
19 1 27.974799999999998 24.756 25.34
20 1 27.7333 18.2212 10.198
21 1 25.372 7.0471500000000002 1.1862299999999999
22 1 23.958300000000001 3.2744900000000001 25.680499999999999
23 1 23.322500000000002 8.9574099999999994 16.827100000000002
24 1 24.328900000000001 22.4862 19.173400000000001
25 1 8.9082100000000004 5.5963900000000004 4.7111999999999998
26 1 18.514399999999998 0.222771 6.4690500000000002
27 1 14.0825 4.0874699999999997 26.2746
28 1 5.3666700000000001 6.7663099999999998 25.855499999999999
29 1 23.930099999999999 20.2593 3.9821900000000001
30 1 7.8562000000000003 7.1593600000000004 2.29074
31 1 14.7433 2.3758699999999999 19.979299999999999
32 1 17.3902 1.42716 21.015699999999999
33 1 5.4992700000000001 12.1175 3.80301
34 1 0.031023100000000001 1.54217 1.3592200000000001
35 1 15.5947 17.4452 15.491300000000001
36 1 4.2675400000000003 25.316600000000001 7.6569799999999999
37 1 5.78559 22.711200000000002 1.8002899999999999
38 1 25.841200000000001 12.6751 28.0152
39 1 18.241700000000002 21.495899999999999 25.078199999999999
40 1 16.1309 17.9941 18.400200000000002
41 1 14.5252 12.2036 22.012899999999998
42 1 8.45702 8.1949100000000001 8.5798699999999997
43 1 5.8223900000000004 24.894400000000001 15.2232
44 1 25.180900000000001 6.7970699999999997 10.382099999999999
45 1 22.930499999999999 3.9504700000000001 17.4376
46 1 15.0245 17.1632 26.004000000000001
47 1 16.793299999999999 20.868500000000001 8.14377
48 1 26.657299999999999 18.5806 14.886200000000001
49 1 27.7638 15.7653 8.9705700000000004
50 1 15.3248 0.472165 27.0245
51 1 20.935700000000001 23.302099999999999 14.0456
52 1 4.4050700000000003 20.965499999999999 18.296800000000001
53 1 25.649100000000001 27.658799999999999 8.4765800000000002
54 1 9.8347800000000003 2.7937799999999999 17.975999999999999
55 1 25.157 14.4772 3.5943299999999998
56 1 24.121600000000001 11.542299999999999 10.4293
57 1 26.364999999999998 14.466699999999999 0.96264700000000003
58 1 2.5084399999999998 3.5904400000000001 23.2408
59 1 4.8469199999999999 25.875900000000001 17.446100000000001
60 1 14.260400000000001 15.468400000000001 23.802700000000002
61 1 4.8171799999999996 2.3712300000000002 18.791499999999999
62 1 11.027200000000001 5.5141600000000004 13.379799999999999
63 1 22.398499999999999 16.245000000000001 20.802199999999999
64 1 2.4893299999999998 15.3598 14.001300000000001
65 1 24.6691 12.828099999999999 2.0156100000000001
66 1 6.6542700000000004 12.3055 20.6722
67 1 16.388200000000001 13.4155 3.9792100000000001
68 1 1.63568 10.154400000000001 21.546199999999999
69 1 0.44954499999999997 6.7438399999999996 1.66012
70 1 27.368600000000001 7.6177200000000003 23.752700000000001
71 1 2.58155 21.556000000000001 12.8459
72 1 22.032800000000002 19.072600000000001 8.4313599999999997
73 1 1.92361 14.3042 28.094799999999999
74 1 14.3436 17.168900000000001 20.846699999999998
75 1 11.3802 7.4610099999999999 10.020899999999999
76 1 17.7714 22.677700000000002 15.013199999999999
77 1 7.5219800000000001 3.8163200000000002 3.2513899999999998
78 1 10.0502 19.847300000000001 17.8398
79 1 19.130299999999998 25.0746 26.7559
80 1 20.006 13.1571 15.300700000000001
81 1 13.088699999999999 19.729500000000002 24.874600000000001
82 1 5.7973100000000004 1.8296399999999999 28.5715
83 1 22.3444 24.710799999999999 6.8857400000000002
84 1 14.8147 2.6477599999999999 16.757300000000001
85 1 27.406600000000001 25.497199999999999 9.5614100000000004
86 1 27.532 23.172899999999998 22.500299999999999
87 1 11.898199999999999 17.274799999999999 12.448399999999999
88 1 22.622900000000001 7.42652 -0.0379747
89 1 18.9663 2.0272299999999999 11.2178
90 1 19.230699999999999 13.4833 4.96936
91 1 26.043500000000002 2.4775499999999999 0.753417
92 1 0.10872800000000001 16.950800000000001 15.765599999999999
93 1 26.962199999999999 25.716200000000001 22.0656
94 1 14.845599999999999 15.0085 5.8247999999999998
95 1 7.1108700000000002 9.4008400000000005 10.818899999999999
96 1 27.913 25.5703 14.2163
97 1 14.938800000000001 10.0807 19.811599999999999
98 1 2.3804500000000002 14.8148 7.3828800000000001
99 1 9.6894899999999993 19.485399999999998 6.2487300000000001
100 1 12.3596 21.146599999999999 19.112300000000001
101 1 3.42422 -0.14985100000000001 17.6144
102 1 16.8048 23.712 17.536100000000001
103 1 0.23080700000000001 11.3179 19.301400000000001
104 1 16.535900000000002 11.239599999999999 5.8367399999999998
105 1 2.56412 12.547800000000001 2.0887600000000002
106 1 5.90069 26.395900000000001 5.1444299999999998
107 1 14.915699999999999 27.747599999999998 23.8628
108 1 10.3536 14.7682 9.8449399999999994
109 1 19.202300000000001 23.507300000000001 3.4636200000000001
110 1 13.894600000000001 23.417100000000001 24.486899999999999
111 1 9.7530400000000004 4.53383 0.44206099999999998
112 1 25.0229 24.266200000000001 17.011099999999999
113 1 20.343299999999999 8.3099900000000009 12.106400000000001
114 1 25.596299999999999 2.5039799999999999 21.096399999999999
115 1 13.1622 9.3434699999999999 25.896999999999998
116 1 28.097999999999999 1.6213500000000001 26.810600000000001
117 1 12.435700000000001 5.36557 0.88965300000000003
118 1 16.5885 5.4286799999999999 7.1648500000000004
119 1 22.5427 25.6449 12.7599
120 1 16.799299999999999 10.918200000000001 9.0703499999999995
121 1 27.676200000000001 0.56582299999999996 6.9729299999999999
122 1 13.966100000000001 20.2059 10.610799999999999
123 1 28.145800000000001 4.9503700000000004 23.222999999999999
124 1 6.6604900000000002 12.198499999999999 9.9566800000000004
125 1 14.458600000000001 15.1553 13.9933
126 1 10.904999999999999 10.0703 15.0625
127 1 9.6952499999999997 12.595000000000001 10.877599999999999
128 1 1.4151100000000001 4.7042799999999998 28.4495
129 1 11.680099999999999 14.3973 1.5894999999999999
130 1 24.300000000000001 17.081700000000001 25.8931
131 1 4.1402099999999997 18.263300000000001 6.0229799999999996
132 1 7.6596900000000003 26.601400000000002 9.0640499999999999
133 1 22.630800000000001 26.725100000000001 9.8405900000000006
134 1 17.2973 15.2052 11.2661
135 1 17.727699999999999 12.2485 14.045299999999999
136 1 24.904299999999999 22.416399999999999 5.9715299999999996
137 1 10.144500000000001 7.5403500000000001 26.3569
138 1 23.493500000000001 14.420999999999999 12.664199999999999
139 1 3.5765699999999998 19.040700000000001 20.777100000000001
140 1 6.0594299999999999 22.8887 27.474499999999999
141 1 2.4649899999999998 11.703099999999999 12.3612
142 1 6.0282900000000001 20.386099999999999 3.42184
143 1 16.6447 16.409300000000002 22.626100000000001
144 1 1.0610599999999999 7.1728300000000003 21.564499999999999
145 1 27.123100000000001 10.205299999999999 11.1814
146 1 10.0792 25.6615 27.407599999999999
147 1 5.4802900000000001 5.7322199999999999 3.33752
148 1 12.139200000000001 2.8413599999999999 10.8948
149 1 13.9818 9.9178700000000006 17.203900000000001
150 1 20.539999999999999 15.491099999999999 22.900200000000002
151 1 10.651300000000001 18.734000000000002 15.4038
152 1 24.622900000000001 26.883099999999999 11.4224
153 1 11.8011 11.275 12.703200000000001
154 1 20.160599999999999 13.357900000000001 20.0913
155 1 25.8687 1.90452 24.1235
156 1 24.643000000000001 4.8587400000000001 5.4891899999999998
157 1 7.4723800000000002 3.1254300000000002 6.65367
158 1 5.1129699999999998 26.4939 2.3579400000000001
159 1 16.3583 9.4146000000000001 15.1477
160 1 1.19095 3.0666199999999999 4.0138499999999997
161 1 26.9541 15.0564 16.734300000000001
162 1 9.4066399999999994 22.3277 19.5304
163 1 2.15883 -0.25462699999999999 10.6715
164 1 6.4085700000000001 12.7348 23.013400000000001
165 1 5.2049799999999999 12.7958 12.2121
166 1 9.1948899999999991 11.4114 20.488499999999998
167 1 26.816099999999999 17.008099999999999 24.294
168 1 12.049799999999999 11.612299999999999 19.665099999999999
169 1 17.123200000000001 27.7272 25.437100000000001
170 1 0.91193500000000005 26.6325 22.415500000000002
171 1 11.807600000000001 16.7073 25.002300000000002
172 1 6.0065200000000001 0.087013199999999999 10.9682
173 1 26.176500000000001 13.1334 19.0441
174 1 16.799700000000001 7.9286599999999998 26.193999999999999
175 1 16.1602 19.472799999999999 1.84388
176 1 13.573600000000001 6.1548400000000001 23.713200000000001
177 1 10.5204 14.0954 13.7363
178 1 4.69191 13.9541 14.7423
179 1 12.027100000000001 12.9337 16.871700000000001
180 1 25.227399999999999 25.470700000000001 14.367100000000001
181 1 9.5174199999999995 2.4893200000000002 12.2532
182 1 21.8537 13.7818 3.6197400000000002
183 1 2.1065999999999998 2.1905000000000001 7.0362200000000001
184 1 12.2028 1.0672999999999999 16.4328
185 1 23.555199999999999 6.7894600000000001 19.156700000000001
186 1 7.2001600000000003 21.724900000000002 24.6905
187 1 21.490400000000001 13.4223 10.234
188 1 24.8369 20.152100000000001 14.5656
189 1 10.548 11.1554 5.3650799999999998
190 1 19.590900000000001 20.763000000000002 7.6499499999999996
191 1 11.6136 27.599900000000002 9.0160400000000003
192 1 15.296799999999999 27.556799999999999 20.962700000000002
193 1 25.063300000000002 5.5887799999999999 25.083300000000001
194 1 26.266500000000001 28.253499999999999 12.543100000000001
195 1 17.270499999999998 27.9163 9.7249400000000001
196 1 27.665800000000001 19.819600000000001 7.8323499999999999
197 1 9.3801000000000005 11.992900000000001 22.925899999999999
198 1 25.958400000000001 14.117800000000001 6.0643399999999996
199 1 3.55775 23.333600000000001 16.107199999999999
200 1 1.2224200000000001 13.4069 22.991900000000001
201 1 25.6876 12.425599999999999 13.398300000000001
202 1 21.236899999999999 2.2216399999999998 25.116599999999998
203 1 18.375800000000002 0.39781899999999998 23.3766
204 1 26.7455 13.6206 23.721
205 1 11.7942 5.5054299999999996 25.7424
206 1 23.3278 17.5822 22.811800000000002
207 1 22.044699999999999 2.6919900000000001 5.7723899999999997
208 1 21.575399999999998 5.3029200000000003 5.5829899999999997
209 1 15.181800000000001 17.9574 12.5139
210 1 11.2402 17.375699999999998 19.975899999999999
211 1 24.448399999999999 9.0758700000000001 22.965800000000002
212 1 4.2372399999999999 1.6797500000000001 9.0192899999999998
213 1 9.8518500000000007 9.1331699999999998 6.8111100000000002
214 1 4.4478299999999997 -0.086609099999999994 20.903300000000002
215 1 4.4903199999999996 4.9553599999999998 12.7529
216 1 24.660900000000002 15.152900000000001 18.809899999999999
217 1 12.181100000000001 23.106400000000001 6.8405100000000001
218 1 20.198399999999999 26.192699999999999 4.4790999999999999
219 1 27.190000000000001 7.7114599999999998 12.257300000000001
220 1 10.0511 20.267399999999999 12.1869
221 1 4.2875399999999999 2.3056999999999999 15.1633
222 1 10.1843 7.4944100000000002 0.57981799999999994
223 1 11.647600000000001 21.178100000000001 3.8534600000000001
224 1 13.9329 25.755600000000001 26.299199999999999
225 1 4.6527799999999999 10.9 1.3273699999999999
226 1 25.9255 15.6364 11.1645
227 1 26.822299999999998 12.6189 8.2341700000000007
228 1 19.888500000000001 10.105700000000001 19.656700000000001
229 1 18.7715 1.1188899999999999 26.484300000000001
230 1 2.0483899999999999 5.1256399999999998 7.1059000000000001
231 1 16.497900000000001 25.3354 3.8592300000000002
232 1 26.156500000000001 15.227600000000001 14.3538
233 1 18.41 17.209399999999999 0.72882000000000002
234 1 23.081499999999998 15.238799999999999 15.488099999999999
235 1 12.379799999999999 16.0383 15.352399999999999
236 1 28.058 2.5579100000000001 22.641400000000001
237 1 11.1067 17.5977 1.64134
238 1 2.32518 5.42563 3.6029200000000001
239 1 27.570799999999998 6.3826400000000003 17.9283
240 1 9.4077800000000007 5.5869999999999997 7.7066600000000003
241 1 18.8293 14.1989 7.5652699999999999
242 1 7.3587899999999999 12.809799999999999 0.24402699999999999
243 1 0.78839599999999999 2.1855099999999998 9.7108000000000008
244 1 20.855499999999999 24.398099999999999 10.4955
245 1 14.977600000000001 14.3736 1.61049
246 1 26.822900000000001 10.651300000000001 5.7117599999999999
247 1 13.986599999999999 4.85121 16.161999999999999
248 1 9.3225099999999994 12.5303 15.553800000000001
249 1 15.059200000000001 14.382300000000001 20.3263
250 1 22.741399999999999 11.404999999999999 22.0867
251 1 7.4735300000000002 14.3695 17.4953
252 1 12.584899999999999 2.97383 18.226800000000001
253 1 25.959 2.0899700000000001 9.8593600000000006
254 1 25.571300000000001 11.6915 21.281600000000001
255 1 2.1414900000000001 9.0651799999999998 24.527699999999999
256 1 11.190099999999999 2.9979 27.224499999999999
257 1 15.0463 18.7242 23.296600000000002
258 1 26.6402 7.9517100000000003 3.8054800000000002
259 1 20.2026 22.6371 20.375599999999999
260 1 5.4245200000000002 10.039 26.787299999999998
261 1 7.7543300000000004 24.593399999999999 25.921099999999999
262 1 8.3969400000000007 13.386799999999999 25.479900000000001
263 1 21.472200000000001 21.953099999999999 1.4638800000000001
264 1 14.1578 26.447800000000001 3.8992599999999999
265 1 1.46621 9.0747400000000003 14.090299999999999
266 1 24.5974 11.764099999999999 4.4379799999999996
267 1 18.653700000000001 6.3420399999999999 11.5489
268 1 5.6861199999999998 17.041799999999999 14.486700000000001
269 1 6.3060999999999998 0.627776 4.28667
270 1 19.909099999999999 11.1275 27.763000000000002
271 1 0.78010400000000002 9.5439500000000006 0.88958999999999999
272 1 23.3443 0.96370400000000001 11.8916
273 1 23.270600000000002 8.8777699999999999 11.4619
274 1 20.714300000000001 4.2298999999999998 10.889900000000001
275 1 23.462199999999999 27.773199999999999 24.812899999999999
276 1 10.251899999999999 23.747599999999998 4.7852199999999998
277 1 27.025700000000001 20.659199999999998 20.512599999999999
278 1 16.124500000000001 24.973600000000001 13.1815
279 1 19.924199999999999 20.065999999999999 15.4907
280 1 1.5228999999999999 15.1266 17.203900000000001
281 1 1.57348 9.4932400000000001 16.767199999999999
282 1 13.269600000000001 23.259799999999998 20.3826
283 1 19.330500000000001 17.957899999999999 23.150300000000001
284 1 6.1196700000000002 11.5107 18.055299999999999
285 1 2.6798199999999999 1.8308 25.036300000000001
286 1 18.4468 10.5601 24.703299999999999
287 1 12.1104 17.6937 22.462
288 1 20.821300000000001 9.1485199999999995 6.9440600000000003
289 1 12.8345 25.205100000000002 12.166499999999999
290 1 25.259 2.0937700000000001 14.6859
291 1 8.1939499999999992 -0.030584900000000002 13.273099999999999
292 1 17.409300000000002 22.5061 22.262799999999999
293 1 12.995799999999999 15.2255 18.2347
294 1 0.46132699999999999 13.2936 14.321899999999999
295 1 13.791399999999999 11.770799999999999 26.214200000000002
296 1 7.3737599999999999 24.315000000000001 3.5484599999999999
297 1 18.804099999999998 24.927700000000002 1.1788099999999999
298 1 13.719200000000001 22.708400000000001 12.2906
299 1 6.1528099999999997 21.669699999999999 15.301600000000001
300 1 5.2811700000000004 8.6123999999999992 3.4328599999999998
301 1 16.994599999999998 15.352399999999999 14.1877
302 1 19.823599999999999 26.512699999999999 8.6329600000000006
303 1 1.9013100000000001 23.715599999999998 7.4259300000000001
304 1 7.5255299999999998 9.63978 23.325199999999999
305 1 8.1648899999999998 9.8282699999999998 16.396799999999999
306 1 1.8821300000000001 22.115300000000001 26.727799999999998
307 1 27.7043 19.019600000000001 17.847899999999999
308 1 14.4672 4.2765000000000004 12.997400000000001
309 1 12.2098 17.991499999999998 6.2103599999999997
310 1 17.347999999999999 27.881799999999998 3.6139199999999998
311 1 20.123200000000001 23.818999999999999 23.601700000000001
312 1 19.543600000000001 3.5784600000000002 28.206299999999999
313 1 7.2728700000000002 22.4984 5.5889699999999998
314 1 6.6812100000000001 -0.13450300000000001 19.071300000000001
315 1 23.492899999999999 11.4939 18.025200000000002
316 1 11.9139 14.053699999999999 26.855399999999999
317 1 6.57606 15.132300000000001 27.838899999999999
318 1 5.6494999999999997 12.5465 25.7194
319 1 28.112200000000001 12.099299999999999 16.7544
320 1 20.8307 8.8773300000000006 16.735299999999999
321 1 15.771100000000001 8.7283600000000003 3.11727
322 1 25.4252 6.3033400000000004 13.4918
323 1 2.8102 17.767499999999998 16.714700000000001
324 1 0.21165900000000001 10.1355 3.6210900000000001
325 1 28.072900000000001 25.9512 6.5397499999999997
326 1 17.5733 15.9483 25.0624
327 1 19.041699999999999 6.50793 7.3997599999999997
328 1 21.113600000000002 21.184799999999999 23.851099999999999
329 1 12.270099999999999 5.6590199999999999 19.280100000000001
330 1 22.637799999999999 9.0360499999999995 20.199300000000001
331 1 8.7040299999999995 17.822099999999999 0.36780200000000002
332 1 19.191299999999998 11.167999999999999 7.6527900000000004
333 1 4.4836400000000003 16.433399999999999 8.6968899999999998
334 1 7.3756399999999998 7.7947199999999999 5.4771099999999997
335 1 17.430399999999999 18.625900000000001 21.1572
336 1 26.956399999999999 23.503399999999999 19.7517
337 1 13.053599999999999 5.0234300000000003 10.695399999999999
338 1 15.6526 21.332699999999999 23.828900000000001
339 1 27.839300000000001 9.5273699999999995 8.4246800000000004
340 1 7.54725 20.532900000000001 0.522285
341 1 4.6315 25.0029 -0.041341900000000001
342 1 6.9058000000000002 19.410299999999999 5.5164
343 1 8.5044500000000003 9.8826499999999999 1.2974699999999999
344 1 27.7653 21.519600000000001 5.2884900000000004
345 1 17.435400000000001 19.174900000000001 4.7705900000000003
346 1 1.41961 23.0961 4.9238799999999996
347 1 19.986599999999999 10.2517 14.543900000000001
348 1 17.234400000000001 14.2597 27.930499999999999
349 1 22.216699999999999 9.7971900000000005 26.608699999999999
350 1 18.010000000000002 1.58392 1.4420500000000001
351 1 3.3795700000000002 20.539000000000001 4.2704500000000003
352 1 20.309799999999999 28.087700000000002 11.3285
353 1 24.950800000000001 12.697100000000001 16.342099999999999
354 1 9.1812100000000001 28.284700000000001 16.222000000000001
355 1 22.3917 25.397099999999998 15.5814
356 1 3.7264499999999998 14.801299999999999 2.0585300000000002
357 1 21.385200000000001 19.236999999999998 21.335100000000001
358 1 4.3546300000000002 10.3918 10.450100000000001
359 1 15.1602 2.3643000000000001 6.8144200000000001
360 1 24.741299999999999 17.142499999999998 16.791699999999999
361 1 8.4989600000000003 21.880099999999999 3.1471900000000002
362 1 19.847200000000001 2.6835800000000001 21.388999999999999
363 1 24.836200000000002 25.352699999999999 2.3446600000000002
364 1 12.9079 26.625599999999999 20.7714
365 1 17.191800000000001 24.9557 8.0562100000000001
366 1 21.499600000000001 10.285600000000001 9.4727599999999992
367 1 14.243399999999999 0.72388399999999997 2.0153699999999999
368 1 4.5933700000000002 27.1448 9.0085899999999999
369 1 2.4870100000000002 0.53505000000000003 22.633500000000002
370 1 21.2333 0.24005899999999999 1.8226899999999999
371 1 19.552900000000001 24.215299999999999 7.0872400000000004
372 1 20.9331 14.9176 17.738
373 1 14.860099999999999 12.562799999999999 18.402100000000001
374 1 9.7675300000000007 7.9495300000000002 18.139700000000001
375 1 15.013199999999999 26.160499999999999 18.100100000000001
376 1 5.79711 4.2142499999999998 20.557400000000001
377 1 15.3262 17.561199999999999 6.3002599999999997
378 1 7.19611 14.790699999999999 5.7130400000000003
379 1 26.6326 24.308499999999999 4.2351299999999998
380 1 7.5876999999999999 2.7108300000000001 9.8678299999999997
381 1 3.9182000000000001 28.132899999999999 5.9598199999999997
382 1 0.0399136 22.409300000000002 13.9443
383 1 18.721699999999998 10.83 3.6816399999999998
384 1 18.787700000000001 22.3504 9.3021600000000007
385 1 27.3718 10.380800000000001 14.0022
386 1 1.88883 14.526999999999999 11.236599999999999
387 1 16.041 20.529599999999999 12.722799999999999
388 1 16.980599999999999 16.703800000000001 8.6213300000000004
389 1 0.437197 16.847000000000001 27.283799999999999
390 1 22.761800000000001 5.94754 11.5611
391 1 24.071000000000002 19.9452 21.071100000000001
392 1 2.5713699999999999 16.5656 22.029499999999999
393 1 10.5854 8.9567800000000002 23.7593
394 1 6.9660399999999996 17.158100000000001 7.7893999999999997
395 1 20.9895 9.3254800000000007 23.7515
396 1 28.461300000000001 6.7838700000000003 9.5561399999999992
397 1 17.6631 27.101400000000002 19.0642
398 1 23.699200000000001 15.4595 1.23885
399 1 20.079799999999999 11.023999999999999 22.264099999999999
400 1 27.143899999999999 22.345500000000001 8.2907600000000006
401 1 23.2165 22.338899999999999 16.073599999999999
402 1 20.8386 6.3310599999999999 18.746400000000001
403 1 13.365500000000001 21.5168 1.7675399999999999
404 1 4.3261900000000004 19.078299999999999 12.763299999999999
405 1 14.1555 11.8712 6.8177500000000002
406 1 23.112400000000001 27.3338 20.304600000000001
407 1 22.469000000000001 23.622499999999999 4.0945
408 1 17.4251 12.1464 19.367999999999999
409 1 9.9738500000000005 2.3947600000000002 24.247800000000002
410 1 25.764600000000002 17.110199999999999 28.1874
411 1 19.351099999999999 7.1110699999999998 24.386800000000001
412 1 10.9414 20.277100000000001 21.528199999999998
413 1 15.0517 17.002600000000001 0.50134800000000002
414 1 12.329800000000001 9.1678200000000007 8.2964400000000005
415 1 7.7662500000000003 7.8747800000000003 27.138200000000001
416 1 17.849299999999999 18.216100000000001 13.4694
417 1 3.9683799999999998 25.661899999999999 11.9015
418 1 21.691700000000001 4.7630400000000002 26.454999999999998
419 1 11.317500000000001 9.6993399999999994 28.089700000000001
420 1 7.5085899999999999 11.6105 6.3229600000000001
421 1 15.3344 12.3805 15.7073
422 1 15.7936 1.4796899999999999 11.9495
423 1 6.2229299999999999 10.7606 13.601000000000001
424 1 4.8581000000000003 15.5906 16.9635
425 1 14.4595 9.9778199999999995 28.3095
426 1 18.913499999999999 8.4917200000000008 21.689800000000002
427 1 18.515000000000001 12.997999999999999 10.8658
428 1 10.547700000000001 24.840599999999998 18.3858
429 1 13.397600000000001 1.6337900000000001 13.1218
430 1 28.203800000000001 8.3221600000000002 19.2378
431 1 25.588999999999999 4.1415499999999996 16.127800000000001
432 1 24.582699999999999 1.6128499999999999 5.7539199999999999
433 1 4.1431699999999996 23.048500000000001 10.033899999999999
434 1 22.0519 11.279 12.491300000000001
435 1 4.0285399999999996 0.93604100000000001 2.9448400000000001
436 1 22.928899999999999 7.3361000000000001 25.136099999999999
437 1 24.668600000000001 19.492899999999999 6.7933000000000003
438 1 21.657299999999999 11.0776 5.2393099999999997
439 1 1.66933 17.930700000000002 19.1569
440 1 14.1264 20.3673 7.6091600000000001
441 1 23.493200000000002 17.669599999999999 3.2572100000000002
442 1 27.6525 4.5865099999999996 10.9316
443 1 1.92954 5.9948600000000001 25.132999999999999
444 1 9.6989300000000007 16.425599999999999 7.1118899999999998
445 1 20.361499999999999 25.647600000000001 20.0398
446 1 13.2417 27.4359 28.547699999999999
447 1 5.99519 23.2559 17.980399999999999
448 1 7.6840400000000004 27.589500000000001 1.44903
449 1 19.7164 19.262699999999999 9.9214599999999997
450 1 16.649000000000001 3.3218899999999998 27.323899999999998
451 1 12.400600000000001 14.5943 6.6851399999999996
452 1 27.847799999999999 7.25793 27.4923
453 1 20.819800000000001 16.353400000000001 14.6463
454 1 25.4512 22.438300000000002 1.7566299999999999
455 1 0.95070500000000002 27.7927 26.136700000000001
456 1 6.2742300000000002 23.099499999999999 22.563700000000001
457 1 18.948699999999999 3.5906199999999999 24.208600000000001
458 1 3.0937199999999998 8.0654599999999999 26.760000000000002
459 1 16.552099999999999 22.3094 0.72772300000000001
460 1 5.51572 9.7189300000000003 20.857099999999999
461 1 24.1052 23.8125 10.058400000000001
462 1 17.781300000000002 25.970400000000001 22.119599999999998
463 1 1.9952700000000001 0.9758 20.1845
464 1 14.461499999999999 11.3803 3.3905799999999999
465 1 24.819400000000002 4.7737299999999996 22.560700000000001
466 1 3.22675 12.7857 20.990200000000002
467 1 12.733700000000001 0.79018200000000005 25.765799999999999
468 1 23.067 1.6635200000000001 23.1767
469 1 22.2742 0.54791500000000004 27.3384
470 1 7.4858399999999996 18.691800000000001 25.711400000000001
471 1 23.710999999999999 11.580399999999999 7.2277100000000001
472 1 27.471599999999999 5.3132799999999998 3.9919699999999998
473 1 13.0716 13.180099999999999 14.317500000000001
474 1 18.107700000000001 13.5947 23.4191
475 1 11.9262 18.125599999999999 9.5605700000000002
476 1 25.9741 18.099599999999999 12.0875
477 1 5.8400100000000004 8.08765 0.56715599999999999
478 1 25.151599999999998 17.5167 8.70932
479 1 13.445499999999999 19.090800000000002 3.27929
480 1 13.7126 26.018999999999998 8.5406399999999998
481 1 22.961200000000002 2.3964799999999999 1.0322800000000001
482 1 13.5001 14.8399 9.0381999999999998
483 1 10.7341 24.446899999999999 21.717300000000002
484 1 1.5971599999999999 6.1804600000000001 12.4162
485 1 10.3507 28.6357 27.165800000000001
486 1 28.238099999999999 19.202300000000001 25.3687
487 1 16.4361 5.1144100000000003 24.8948
488 1 3.3585199999999999 26.408999999999999 15.171200000000001
489 1 9.9889799999999997 5.40367 10.519
490 1 5.9459600000000004 28.409199999999998 16.011700000000001
491 1 8.2555599999999991 1.6540699999999999 26.273800000000001
492 1 8.8921200000000002 16.0441 2.3571200000000001
493 1 10.5922 8.7308500000000002 3.2179799999999998
494 1 28.317599999999999 3.2319599999999999 19.3431
495 1 10.176500000000001 8.0588099999999994 21.105899999999998
496 1 22.6419 16.7501 10.680099999999999
497 1 12.4069 16.362100000000002 28.148399999999999
498 1 9.4033300000000004 18.795100000000001 3.3444600000000002
499 1 3.38829 6.7860899999999997 1.0627599999999999
500 1 9.0348100000000002 19.662800000000001 9.4698499999999992
501 1 26.7514 24.2302 12.1288
502 1 21.917999999999999 4.9308100000000001 23.566500000000001
503 1 13.2857 9.4171099999999992 4.55227
504 1 14.2799 22.049199999999999 27.777999999999999
505 1 15.8155 16.716200000000001 3.36904
506 1 4.2958100000000004 14.337300000000001 22.757899999999999
507 1 19.862500000000001 0.911991 17.676600000000001
508 1 11.241400000000001 28.3064 13.0695
509 1 19.194800000000001 25.497399999999999 16.448499999999999
510 1 16.287400000000002 19.642199999999999 27.109000000000002
511 1 1.1449499999999999 23.5715 17.059799999999999
512 1 10.3347 5.4054000000000002 22.862300000000001
513 1 4.4187700000000003 10.940300000000001 5.6248199999999997
514 1 20.471499999999999 0.79107499999999997 8.9335699999999996
515 1 10.6037 14.3443 19.051200000000001
516 1 1.2689699999999999 16.773299999999999 24.378699999999998
517 1 20.805099999999999 21.570599999999999 4.5732999999999997
518 1 17.147600000000001 20.941400000000002 19.730499999999999
519 1 23.3461 9.5054999999999996 2.59009
520 1 8.1852499999999999 24.465599999999998 20.148099999999999
521 1 17.868400000000001 4.1194800000000003 19.798200000000001
522 1 19.254300000000001 12.890000000000001 1.82494
523 1 22.428899999999999 26.1524 28.019400000000001
524 1 26.607700000000001 28.120799999999999 2.4629099999999999
525 1 27.819400000000002 12.879799999999999 3.5458799999999999
526 1 16.7576 9.6380099999999995 12.1768
527 1 14.4627 6.29094 2.67726
528 1 6.85093 7.2135400000000001 17.188500000000001
529 1 3.4490599999999998 6.5409199999999998 14.7043
530 1 19.260400000000001 19.141200000000001 18.466799999999999
531 1 27.8109 10.019600000000001 23.149999999999999
532 1 25.3874 1.6182099999999999 17.603400000000001
533 1 13.2524 21.585899999999999 22.464500000000001
534 1 9.3749699999999994 5.33345 19.869299999999999
535 1 16.346599999999999 20.608699999999999 15.956099999999999
536 1 7.4657600000000004 9.5647199999999994 18.985800000000001
537 1 21.366 2.3645200000000002 12.970700000000001
538 1 3.12493 7.9387100000000004 18.170100000000001
539 1 16.575099999999999 24.882999999999999 24.289000000000001
540 1 8.6253299999999999 27.0532 21.906400000000001
541 1 18.5197 5.48644 26.6814
542 1 22.028400000000001 18.780899999999999 25.440999999999999
543 1 15.1867 3.4521999999999999 10.1767
544 1 5.8511499999999996 9.0857600000000005 8.0069300000000005
545 1 10.291499999999999 27.145900000000001 1.7803100000000001
546 1 13.1792 7.8760700000000003 1.5188200000000001
547 1 15.509399999999999 5.7166899999999998 19.451599999999999
548 1 19.051100000000002 7.3836599999999999 14.4656
549 1 10.9137 3.13727 20.375299999999999
550 1 23.6646 17.8384 14.003299999999999
551 1 9.4392499999999995 12.0611 17.930900000000001
552 1 11.8559 23.764299999999999 9.72851
553 1 26.491399999999999 9.9806600000000003 1.22275
554 1 27.195599999999999 4.2047999999999996 7.5927699999999998
555 1 21.6464 12.131500000000001 25.482399999999998
556 1 6.6539799999999998 22.063600000000001 20.246099999999998
557 1 2.7064400000000002 2.1508600000000002 28.0307
558 1 4.9055900000000001 19.1874 15.5319
559 1 21.553599999999999 3.57307 3.06393
560 1 14.590400000000001 20.721299999999999 4.8155999999999999
561 1 7.0187200000000001 6.2481 10.199299999999999
562 1 5.98285 6.7853199999999996 19.733799999999999
563 1 11.1333 22.781400000000001 13.508599999999999
564 1 7.6957700000000004 25.7561 17.3261