LAMMPS data file via write_data, version 2 Aug 2023, timestep = 4000000, units = metal

1001 atoms
2 atom types

0 28.422298224662292 xlo xhi
0 28.422298224662292 ylo yhi
0 28.422298224662292 zlo zhi

Masses

1 6.94
2 14.0067

Atoms # atomic

917 1 3.463578020288478 2.611341527282995 0.932129045796701 1 5 3
674 1 2.121403357848763 3.628636241134364 4.46593803278327 3 0 0
453 1 0.0802416948568914 1.969304112488765 2.3336226391430954 3 1 1
688 1 2.906697959073731 1.116936408616992 3.324957891464637 5 1 2
548 1 8.20530723554348 1.5402624369650282 1.6798984922762092 -1 -1 0
682 1 5.09372241454504 3.2051091809851076 3.2512670189258506 1 1 4
988 1 7.983873062169915 4.214432796007078 2.372477636195435 2 -3 2
110 1 7.716309912892904 2.5752409605641877 4.105344434642196 2 -1 0
544 1 5.698856563694074 0.5658783553944419 3.891109879691284 -1 2 2
22 1 5.774510781983553 1.1650105152169137 0.849420132476722 1 1 -3
603 1 10.492846684554133 2.756392875506587 0.5444027809438581 1 1 3
912 1 11.30089873460956 3.687284712226819 3.4254685490303673 1 -1 3
997 1 13.624917743801994 3.42905075909639 0.9354370044685131 -2 -2 -2
344 1 9.700880870884351 0.17326461563482293 3.837432664227635 -1 1 -2
138 1 13.31326618611562 0.9037708159508758 1.7960436597364782 5 0 2
825 1 12.904298152613507 0.95165416970524 4.536101498068246 0 -2 -1
668 1 15.82726328501229 3.7093427387163778 3.043340056370042 4 -2 3
159 1 16.367681021981447 1.2216040110989017 2.3678325295383633 -2 -2 -3
609 1 18.157474876669788 0.08855492948385087 3.5207662197289555 -1 2 -2
63 1 17.827320024903212 4.66074006165849 1.398419295819836 2 1 -2
87 1 15.52232907610463 1.0433355146584162 0.13269772785475453 -1 0 0
146 1 21.94263635531965 0.9497643009671818 0.9250056303472746 1 -1 3
77 1 19.224336376355488 2.8784090437599623 3.3756060258462286 -1 1 7
348 1 22.107647723825018 2.0672132516181283 3.4328622279153436 -1 -1 4
528 1 23.17901950399811 3.524009418477269 1.127943060701492 -3 4 5
119 1 20.539793337484504 0.03954005738815874 3.3882824046733973 3 3 -1
764 1 19.414361051587086 1.2038598503282618 1.0154173588812407 -1 1 -1
322 1 26.470533724527353 3.0474633346774205 1.3098399296005536 -3 1 3
901 1 25.248765069493608 0.34984776775540755 1.4754066633581429 3 0 3
283 1 27.751636851514718 4.375369487906766 3.5751760846177474 2 -5 5
621 1 23.83918066139327 4.710851825899968 4.533825883510804 -4 0 -3
513 1 25.038191494228137 2.484621096398942 4.1034656081907395 -1 -3 -3
517 1 26.90141037950527 0.14933977173661164 4.056221852509456 -1 -1 -2
623 1 0.8451133606817791 4.7658180773543535 0.3793912816361706 0 0 -2
785 1 1.4127671245988296 9.207168121475402 0.41225934857737073 4 -5 0
129 1 2.8078772507405425 5.0536994480317174 1.9005175775092888 4 0 2
430 1 3.1399648987783304 8.316238594009175 3.279015533815377 5 -2 3
761 1 1.3186134790709405 6.576037746911081 4.10864611418461 0 3 -2
472 1 0.06365973780336809 9.165212805497138 3.938294207104462 -1 -1 -3
955 1 4.273915017280374 7.578622242550408 0.8109636522134195 5 1 0
337 1 5.41669089499782 6.318847888357586 3.555291898156647 5 1 0
670 1 7.85909399518372 7.309679686671714 1.3653568417429607 7 3 3
866 1 6.608065934169037 8.413881764314054 4.333094988426669 2 -1 1
558 1 13.178828992710962 5.826350070485878 4.097268790962404 -1 3 2
880 1 10.365707704080318 6.397287859085252 2.968665134399573 2 0 0
884 1 12.655459453426086 6.382130441610909 1.2713641523530794 0 2 1
923 1 12.083712750862446 9.085956401006882 2.3193716395854262 8 3 -1
795 1 9.566773157094513 9.07436118357397 4.414153070099602 0 -1 -2
151 1 16.020352667518445 6.575742440962431 2.195326163340929 1 4 1
221 1 18.21019230193081 8.274200646103688 2.0735066527667247 0 2 -2
268 1 14.99151127436475 9.378950182760395 2.2959677829515828 -1 0 2
620 1 16.801421081897743 8.701714883308075 4.534754439209196 1 4 1
296 1 18.10842235111995 6.1786620976892275 3.677556485142571 2 -1 1
75 1 23.31563047582209 7.781215334600699 3.014378206982286 -2 -1 -1
279 1 20.530194154800295 7.78841622772595 2.415094414057201 0 -1 2
652 1 21.274527254314304 5.3995277585489365 2.117037585542631 1 5 -1
335 1 25.26975593891897 5.60031784966436 2.692553737612014 3 -4 0
101 1 23.75454671480509 6.385771369398842 0.002246302484654587 2 -2 -2
827 1 25.74400149276868 9.12615004881059 1.8393068493523728 -4 -4 -1
680 1 27.97485734762116 7.413994232833092 1.240947776744137 1 0 9
333 1 26.78613722188928 7.216069547976427 4.570288704064127 1 0 -1
387 1 3.648737337543865 11.00787086188141 0.5901210452763184 2 0 -4
758 1 1.110158727575909 14.036558117396606 3.2085741236817817 4 1 1
428 1 3.0903930503707495 11.962985668496922 3.276590484940041 -1 -1 4
641 1 1.5627353207614967 12.566095810423354 0.43924677805178364 1 2 6
41 1 5.938784008984019 9.932907188205096 2.213302887615064 2 -2 1
435 1 5.804010290173085 11.415442424714794 4.355610430798578 0 0 4
509 1 8.525349366047365 11.80402675977371 2.8688613582533216 -3 -1 -2
526 1 5.7024469438174314 12.625332638329093 1.1489370009259 -2 0 -2
388 1 9.385072784304892 10.106379100187718 1.205966786093679 -4 0 3
782 1 8.303016240996314 12.493900724278719 0.2772053007102764 -1 1 3
359 1 10.215498243708485 13.880580482367808 4.4726493617997995 -1 -1 2
24 1 11.47278816079169 12.26262973235235 1.8457621568185227 2 -3 2
656 1 13.906859637343446 12.18940012596832 2.643053831121985 -4 2 -4
8 1 17.347000249516643 11.149479669579122 1.842799757254566 -5 -1 0
167 1 18.57691540103612 13.377965948842537 2.8794273076628416 2 6 -2
471 1 19.475915858957098 10.400036316426316 0.7870549027945788 0 1 -1
666 1 22.248922716111654 10.010344631899972 1.4131298494776539 1 -3 0
783 1 21.16246406327551 13.104510964515018 0.8936584317133867 1 -1 -1
434 1 21.171735871113853 11.866462542441093 3.650096733444592 -3 5 0
317 1 19.13587014692269 9.9826434319843 4.22369602674351 3 0 1
787 1 24.256708236634587 12.115535614281203 2.0592632271791866 -3 -2 -2
163 1 26.56441372324142 13.67290225427812 0.9888694075627764 0 -2 2
523 1 26.659780958136427 11.92827365965995 4.2826999829682935 2 0 0
5 1 27.773425336046547 11.06843522087921 1.5836708417382865 3 4 -3
791 1 2.2065931252861284 16.761000533033368 2.6772712102463077 -2 -2 -3
718 1 3.1588868548498352 18.7381814056358 4.313167893796245 2 1 2
716 1 3.521595317969183 14.857592317770006 1.510999654309581 1 2 4
691 1 0.7076759720385635 15.549057529957745 0.13157131179194081 5 -2 -3
591 1 0.7624861984595455 17.864428463866886 0.7940381975433805 2 1 3
232 1 7.270777695590018 14.547793038409411 1.7552082551147834 5 0 3
19 1 5.448633149175946 17.376152953240233 1.746967303635389 -2 -1 -1
500 1 4.830839619994076 14.717841795195248 3.9940592865318267 -1 3 5
566 1 7.631568303932971 16.018475954471903 4.07371530819196 0 0 0
162 1 9.299104545269623 17.809655957011934 2.6473502683325023 -1 3 1
969 1 6.864495054646813 18.906520196634904 3.372503472986884 2 1 4
768 1 10.066632833914893 14.890196615953972 1.7014647585821883 2 0 1
504 1 12.552663273916286 16.755631452597296 3.4179374968563483 3 2 1
863 1 13.086058863616739 14.639080768380826 0.5504371923646313 2 -2 0
180 1 14.324321281129702 17.058976644534454 0.5751782055750227 -4 -3 5
705 1 16.011193999539632 14.774642233515765 2.54659080220094 5 -4 2
245 1 18.93219816944653 16.445545053267736 3.3785378135872604 -1 3 0
654 1 15.085021594336068 18.823893583501498 2.6652950240934365 0 1 1
702 1 17.109508934852652 16.951690153166794 1.0615372385288175 2 -1 -3
201 1 21.051949716847705 17.623515448127453 4.214888863290549 -1 1 1
799 1 22.033834016421864 14.935940387428978 3.9612175632515556 -3 -3 -1
255 1 19.172463900736478 15.22955616518496 0.04326107329092321 0 2 4
932 1 21.608655497562143 16.831439434142016 0.10549795675697307 -5 -4 2
441 1 19.377998245819928 18.804880405859457 0.28613113344301744 -3 -2 1
81 1 25.132355481616454 14.512769459254498 3.0257127562616146 -6 0 1
467 1 24.236327681310808 15.810987612427846 0.6175383029860945 0 -2 2
382 1 26.107935829289 18.23271010374893 1.580335296903607 -1 1 0
408 1 23.71289416132764 17.2827524464207 3.809320645618119 -2 -3 5
324 1 26.971334072003923 16.180190701542923 2.6857198811709906 -4 1 -1
368 1 0.2618435397223457 19.20163890007105 2.9223135474584914 1 -3 -3
993 1 3.269009551936952 19.83899223183495 0.9227800632105798 -2 -1 5
748 1 1.5539362793673428 21.512641980470065 2.0627413270190456 -3 -5 0
826 1 4.652306786811636 20.78940905598436 3.229559525552339 -3 0 0
299 1 8.987119126752956 19.436041969999806 0.4117995621915849 -2 -1 3
25 1 8.296739997675685 23.137743855408594 2.0912710421427176 -1 -2 2
139 1 7.420177636888452 21.573493040203328 4.409872724427592 4 0 -1
858 1 4.97416704569987 22.463067141096385 0.21129730508731004 0 4 1
269 1 12.09345260293377 19.419908871074025 0.8991152383047184 1 -2 -1
938 1 12.02621913597097 23.506182362701104 2.1455730837984928 -2 0 -3
639 1 14.119270344169282 21.586840346835046 1.6745309810488276 1 -2 4
545 1 9.979848000885596 20.439349061212027 3.0230694048362747 3 -3 -2
638 1 12.822989980112752 20.187280605517643 3.79706283213299 2 0 0
685 1 16.121403592231285 23.122196125391543 0.02132036287362382 1 -1 -1
925 1 17.11829518039713 20.56907527367717 0.9838591872860666 -1 2 1
347 1 16.101205270600758 20.940844180762635 3.639364770973532 5 -1 0
3 1 17.434098826674227 22.99202183416188 2.304880068069615 -3 2 -3
952 1 19.090412224463076 19.376034639294662 3.1043985743785614 -2 -3 -1
109 1 22.627052345480948 18.98977033992493 2.2468554506489125 -1 3 0
403 1 20.064432764405076 21.706061580371717 4.599097647640193 -1 1 0
331 1 22.969487790876922 20.955763082793478 4.286467573256683 -3 0 0
214 1 20.096220437104108 21.475667066414736 1.0106532522238174 1 -2 1
311 1 27.477615044531294 20.903117689536053 0.2762534480556297 -3 0 1
987 1 27.514996240540054 21.917091346155114 3.1419242458955776 0 3 0
236 1 25.038850887734146 21.667744333627127 1.9324791513179496 -5 1 -2
959 1 25.638273268423188 19.465768925405296 4.589301036599593 -3 -1 -2
607 1 0.28345210670327603 23.988080553012093 1.2226297409407274 -1 -4 3
366 1 2.1128989904492306 25.285408864203795 2.9807154980839887 -1 -4 3
108 1 1.3464385429618861 27.336829951147795 4.718411343763585 0 -4 3
262 1 2.1933787858961735 28.091238734745634 0.6942092955777315 0 0 2
708 1 4.640667666680682 26.91565129753705 0.32502669948652085 1 1 -1
560 1 5.0404027716963 23.793819647169357 3.0997137146602607 2 3 5
383 1 6.617525831164643 26.746351463771923 2.8968919598400538 -2 -3 0
107 1 7.960212210813932 27.608268789049347 0.3339510018351165 1 -1 1
61 1 9.396855177852686 25.14391358906759 3.348327261055907 0 3 0
676 1 11.646986818169603 26.141734602216967 2.268042378802448 3 -1 -2
840 1 10.479686928373962 28.12703766843927 0.055619106558140195 -2 3 2
59 1 13.40652983379472 27.0066736042332 0.13446733322759385 -2 4 1
805 1 15.92005249473777 26.65189386435768 0.9365783748921217 0 0 4
935 1 18.183632077927243 27.073467605310782 1.4680110643181177 0 1 -3
325 1 14.864032924947647 24.617385242514835 1.80872166683122 -1 5 -1
481 1 15.143169956497042 27.356649848491365 3.514542114685027 1 6 2
780 1 17.890983038557636 25.602726791565512 4.169331484502196 1 0 1
956 1 23.061606921539887 24.1029098896239 0.9359684311479514 3 4 -1
235 1 20.140804970036886 24.482626732231697 2.648740423979487 0 -1 1
977 1 22.769578692783163 26.778662434809373 2.446638334112611 -1 -2 -2
519 1 22.638547261540076 24.190904509256512 4.543090718280608 -1 -5 0
352 1 27.88251758825604 24.624062419286506 4.240653389356554 -1 2 1
957 1 28.076435633570682 27.233806023093454 2.148084818614812 -3 -4 1
326 1 25.384557406515697 24.95438062832058 2.5978690638958435 -1 -1 1
215 1 24.630700686075368 27.001446362840234 4.435439690091085 -1 1 1
36 1 4.485689933058647 2.481057772753889 5.841097658150052 0 1 2
207 1 2.871964377368577 3.7190841426673544 8.182971997262696 3 1 0
929 1 1.7955627010291295 0.8137205719839932 7.682456236002942 0 -1 0
102 1 4.6373512034091195 0.88081813302751 8.71915906019686 1 1 -1
89 1 6.864505050145169 1.5115722019848992 6.517830200381168 1 0 2
351 1 6.279174948174874 4.52571045888456 5.716298401276315 2 1 2
93 1 6.031953439490562 3.771865663498122 8.599988904965175 -3 -2 0
406 1 9.050078163550852 2.917510753340032 7.939304025731277 4 0 3
125 1 9.235968082230551 4.04407790681395 5.288227368363497 -1 -5 2
400 1 9.313539484812367 0.5522234655858996 6.837549910956555 -2 -2 1
636 1 11.455848132438973 2.37627784782236 6.8370686986838445 -1 0 1
234 1 13.072480378142412 4.218076758974685 8.908995004084666 1 0 -1
598 1 13.928038356407232 3.3294375052044556 5.462098392378349 -3 1 0
571 1 13.156432960824649 0.3850772998143164 7.3634171452605415 2 3 1
742 1 15.475204629298588 0.5729990211637815 5.984698113419167 2 -3 -2
902 1 17.89097212711517 0.8304128110207675 8.291089230445653 1 -2 -1
612 1 17.40223867367516 2.4566511686456636 5.758587407232626 -1 2 3
55 1 16.062619469747805 3.8053143805855925 7.865582681400745 -3 -2 -3
554 1 19.83410042703541 0.7687453602513827 5.897074677828084 3 2 3
709 1 21.637156002824128 3.7819430913036767 6.101122947902097 -5 2 0
13 1 23.62895803690399 2.6047346739598765 7.234439364167095 0 0 1
505 1 19.682840402516756 2.872422981250462 8.341812958792858 4 0 -2
582 1 22.850578307626872 1.095858610322788 5.249394433152294 0 1 0
386 1 21.49438054749178 1.2395057961942288 7.8197942617318335 -2 2 2
228 1 27.981735652596896 2.1268623596923755 5.3892597871224925 -2 3 1
989 1 26.003294875110083 4.422656197652952 6.676264632382448 0 -2 -4
850 1 26.177868959616077 0.7213709504893577 7.2301923854707715 -1 2 -1
307 1 25.148997387124655 4.434201370761371 9.329396316878311 3 1 3
97 1 28.04964632988729 3.201574912905348 8.687828757472538 -2 2 1
809 1 3.3103953401673945 5.70677835338931 5.424453547905902 0 -3 0
490 1 0.891895586187836 5.131979408757901 6.706575902369396 2 3 0
696 1 2.987678437132118 6.685117449690096 8.21043088129336 -1 -2 -2
775 1 1.235345301508241 8.340145797675062 6.729638044919915 1 0 2
964 1 7.77807845478238 6.063889314068356 7.449306383801853 -2 2 -8
963 1 5.176040566673812 7.274150833076218 6.954177535471707 -2 -4 1
712 1 8.445434746714119 8.640701719805131 6.678404270179965 -4 -1 -1
353 1 8.646850923170229 6.523253677412442 4.747579108803414 1 4 -3
576 1 6.765283355198061 8.861556176662086 8.540891470542196 0 -2 -2
737 1 11.20322306631139 5.661881938873832 6.716197063419752 3 -1 -3
469 1 11.631281435572316 8.788210838578156 7.186776521971607 4 3 0
939 1 13.678267467178369 8.471149621341864 4.866565141773733 -1 2 1
849 1 9.780836621300468 8.225332866487333 9.329391363737546 3 -1 0
559 1 15.298811103701702 6.281684926042648 5.671787666541968 1 -2 -4
259 1 16.2489851835597 6.5582865154827745 9.136647832894255 1 2 -3
592 1 14.646719056771287 8.705074836258468 7.604993807897277 -2 0 2
525 1 18.223461560146188 8.564777524530149 6.954255043351669 1 -1 0
464 1 18.26744139001262 4.890764397254297 6.389516689377503 0 2 -3
807 1 20.99536590967547 6.286838978372343 5.0784390016297305 0 3 -2
665 1 21.785703951913884 8.93555618791294 8.400849885823696 0 -1 -1
678 1 20.312240715347016 5.876542032675023 8.140326629072534 1 4 0
457 1 23.190860744030637 5.696628322973151 7.730935107225108 -5 -6 -2
928 1 21.2666274382914 9.25451303390762 5.289260065254334 0 -1 4
899 1 24.093631467400474 7.535621272410079 5.8406654710225325 3 1 1
329 1 26.70199043982859 7.1601520413835305 7.505086443757915 -2 -1 0
622 1 28.3701406958119 6.595540224645041 9.2293892366032 0 2 -4
719 1 24.827564467203363 6.911519779157074 9.432490462362647 -3 -1 0
887 1 4.244981000989926 9.531796724833393 5.611516791822979 -3 1 1
241 1 3.0854178797783867 9.806106863362613 8.251400001486664 -1 1 0
824 1 3.222451866026459 12.56535848536347 6.2316969820054595 -2 6 1
463 1 0.6092234460398117 10.964876185009421 6.4712367094414995 4 0 5
790 1 0.5214756645015195 13.252032313211753 8.090085317428848 -1 0 -1
650 1 4.380615313278808 12.298202939975821 9.1311992225671 -1 -2 -1
53 1 8.805119373628681 11.487977071391771 6.767887800589812 2 0 -3
114 1 5.979780470721053 11.464874379466872 6.924733582728486 3 -1 1
913 1 7.180771704295846 13.658404621875839 5.223588182471208 -2 3 -5
355 1 8.512188068112724 14.103769413284354 9.399207381748157 -1 1 1
460 1 11.522107998689544 11.261364585107524 5.0025001608349635 1 -1 2
393 1 13.095534505451036 12.303995629404907 7.535644826789478 4 -2 1
485 1 13.16603348965524 13.818098679174994 4.878592830394071 -2 1 3
720 1 12.737794390425819 10.374146804576114 9.44811290655637 2 2 6
343 1 14.73497509410623 10.718172724900262 5.141411752407858 2 1 0
508 1 15.98246521368877 13.303712455161005 4.811672343737231 -2 4 0
907 1 17.592897569334063 10.948619080361 5.8582318891088265 0 -4 0
996 1 18.5871234160423 13.53718881096637 5.818855040465242 1 -4 0
30 1 16.119891815980868 12.334287017225765 8.040006562574895 0 -3 -2
562 1 19.471675698686283 10.94067413854667 7.663882825321107 -2 -2 6
137 1 19.392001627333638 14.099033514460265 8.409652068513966 2 -5 -1
10 1 21.633708040140082 12.232935182887074 6.328166399818141 -1 -3 3
303 1 24.135469728159855 10.584711698802447 4.817159257278631 3 3 0
202 1 26.68002988932534 9.636908715356869 6.222714309012296 0 1 2
124 1 24.427051151479972 10.051241213965723 7.7142031915374 5 1 -1
773 1 24.366992632750698 13.44782997901829 6.313709802375703 0 2 -2
449 1 25.86531763926419 12.497999845426707 8.63097151944643 -3 -1 1
651 1 27.5151856458266 9.875401123224108 9.117891921630433 -1 4 2
841 1 2.1240179646418307 16.076521030570973 5.624376007760255 2 3 1
423 1 3.0434008499059346 15.101013797615277 8.364851561556577 3 -2 1
45 1 0.274676412287342 16.591964844798397 8.350094445690901 1 3 -1
777 1 3.428945772400624 18.135766599728726 8.236585494088455 1 -2 3
90 1 5.167203666033198 17.18169444530194 6.0297876923381395 3 0 -3
951 1 5.0881458907879065 14.397910677872579 7.222786978492087 -1 1 5
237 1 6.776999441487199 17.36057778037775 9.246445640746488 -1 -3 1
219 1 7.545769317438349 15.64056288695084 6.785243409284198 -2 0 4
779 1 10.661480945732855 14.56879676828236 7.487508641272414 4 -1 -3
502 1 12.289715504266889 18.378949906258654 6.00368124177352 3 0 -4
493 1 9.825217566082507 17.47129818990175 5.525060105995083 -2 0 0
145 1 10.308962669810153 16.938144012430023 8.96795516865555 -4 1 -3
556 1 12.590438512662523 18.869120313511146 8.76239002296868 -1 2 1
452 1 13.207311039128626 15.765355471067268 7.550484686156821 2 -1 1
606 1 15.068535361432643 16.710328473598796 4.893714221546943 0 -3 -1
111 1 17.689982041682814 16.8518026962242 5.9406408399493005 1 -5 -1
50 1 17.506989692162062 15.909981972267905 9.229241924760057 1 -1 -2
679 1 15.968579734583898 15.061858205734586 7.01994284348784 4 0 -6
954 1 15.255702503400093 17.520353647187942 8.035933995026443 -3 -1 0
569 1 20.758521096818743 16.27393428720544 6.962002365871484 0 0 -5
693 1 19.530927036869198 18.295225510128397 8.299276660335384 0 8 5
433 1 23.51387864891331 16.022846023094584 6.709576969889256 -5 4 -5
156 1 23.55813871277538 18.796008721881954 6.201246515653514 -2 2 -2
161 1 22.773832741729045 14.692920761384647 9.082471125397207 0 2 1
800 1 27.513070520702716 14.725136834891897 6.087074321780382 -1 4 0
637 1 25.77143034177333 15.25171364397044 8.484187863179063 -1 1 -2
86 1 27.329094173234488 17.545886192296468 5.289914769857099 0 -4 -2
447 1 0.8581103747502387 19.415123688153493 7.139875024465756 4 2 1
440 1 1.2236074671373909 22.22359952678286 4.827084941687706 -3 2 0
6 1 4.554562718155401 20.651706529184718 7.184610247133967 1 -2 -3
34 1 4.119751308222239 22.66714705620654 5.62963108877847 5 -1 -1
367 1 1.9865211806907186 22.273297325472132 8.318285880652313 -3 -4 -2
596 1 7.139263748651408 19.01611242179884 6.134100429593919 2 2 -3
413 1 9.451134386313438 19.315475581144916 8.220601445710047 -6 0 4
784 1 7.304334852170808 21.894605472760308 7.1658395403018 -3 5 0
144 1 4.96518650701586 23.15516831906023 9.25054916442264 2 0 3
291 1 13.889249581657008 22.823504840463606 4.875963315204525 -3 2 3
632 1 9.96031345199889 20.282730050718158 5.629797868294036 2 -3 -1
769 1 9.650752698781675 22.888609340714055 7.613965108415669 -1 1 0
56 1 10.95417971657972 23.077594687019108 5.139090655118904 2 -3 -2
584 1 12.271588085187643 21.032701124808625 6.9642821843817355 2 1 -1
188 1 14.953730174020572 22.015852405689387 7.610154050345656 -1 -3 2
357 1 16.973442138599573 22.740263894179588 5.542149201055137 0 -3 2
871 1 14.790037137019985 19.470390523958756 6.174989795800513 0 2 -1
185 1 17.974408482037365 19.4494343990821 5.720513440273547 4 -2 0
7 1 17.108332540047144 20.291234520848775 8.339634616370935 2 1 2
122 1 19.393843136368783 22.26969125825609 7.9244980219842605 -2 2 -2
341 1 21.084847946388 19.731771416496336 6.180755482889669 0 -1 -4
176 1 23.126552228739023 22.350335454053916 6.900944059132131 -4 -3 0
661 1 22.43476641777455 19.55280087993735 8.380551554480787 4 -1 -4
153 1 26.03199225824441 19.015478820288152 7.482562278931861 0 -1 0
292 1 27.51205320113561 21.08286136871487 6.591527725806617 3 -1 1
297 1 25.437999843712365 23.016396318303293 5.294133174333545 -3 -2 -1
117 1 1.6663713830178335 24.721903747124784 5.964405882669224 7 -1 4
372 1 3.759062449007823 27.211153710565867 7.009465545370095 0 2 3
438 1 0.1342775117965256 26.487156764143176 8.058772127010405 4 -2 -3
84 1 3.2780572368987824 24.72665676776289 8.118288546822688 0 -3 -2
966 1 4.780891193753316 25.66241861262797 4.996590170710477 3 3 3
911 1 7.394644744887032 24.132270863316542 5.200415279503117 0 3 3
437 1 7.148208612157709 26.88399451774983 6.208541042746719 5 -2 -1
510 1 7.038953996004899 27.496421640313645 8.856858593865942 -1 -3 -2
378 1 7.193256929880253 24.802819558308922 8.034506816324042 0 -2 0
334 1 12.855715676550966 26.36985546222979 5.130717662021533 -1 -3 1
658 1 9.754513143387298 25.68515725152105 6.457112423064766 2 -2 1
96 1 12.63321405366379 24.468233921260513 7.304356407821512 2 2 -4
178 1 15.13409603262634 25.432326918785634 6.269591566469544 -4 1 -1
537 1 17.56601988259112 24.5181994838007 8.064266986686699 -2 3 1
128 1 17.39923350293266 27.592910443998655 5.694251522849994 -2 1 4
823 1 19.619250902910032 27.113605478001695 8.514214782690123 -4 -3 -3
169 1 20.869678994296265 26.536059404283307 5.187323080956243 -2 2 -3
547 1 19.50066852244073 24.63000409928546 6.379174361764004 -4 -2 5
308 1 21.827340745286225 25.35527785997896 8.401253789371731 7 -3 0
160 1 27.288482873977884 23.963392167710776 7.764947458296134 -3 -1 -1
940 1 25.093669535856304 23.86149887522305 8.997677366173301 0 4 3
123 1 26.82783295609754 26.689959304614497 6.444324165109636 -1 0 5
980 1 24.013373447047588 27.398631538628003 8.018826170406669 3 -2 0
968 1 23.95103031728085 25.20770539105285 6.5624308593218705 2 0 1
205 1 2.0790648027349885 3.9161991880382048 10.848982419301556 -1 -1 -2
848 1 2.6156260544245153 2.2274185649668503 13.54922712412774 7 2 0
628 1 0.28057867926129615 3.4608149422821763 13.302098699544453 -1 -1 -2
60 1 4.665827896567474 3.2374396051569123 11.12427172022011 0 3 2
37 1 2.5592869279744734 1.525461363449944 10.947819372242542 -1 -1 2
755 1 4.632113204232464 4.292005834690638 14.001906691679388 -2 0 1
401 1 7.285712001820003 1.471122829584343 10.122600930056485 -5 -3 -1
314 1 7.105396804314404 1.6391437347979951 13.359931482125099 0 1 -1
496 1 9.344830035589146 0.3545212090725597 13.069357264541692 0 -1 -3
882 1 7.675925343244308 4.038549279532861 11.580341322159004 3 0 0
95 1 4.93895549836738 0.7370094256877733 11.982032175294012 -1 2 0
915 1 12.440502270002412 0.9839726833215333 10.504897561863228 3 1 1
91 1 9.972079734273873 2.318462473066539 11.344126182639394 2 0 -1
751 1 12.60261809113868 1.3786185623613691 13.42628325587421 -3 4 -2
846 1 9.72387231769686 3.2744690738663165 13.694530437947206 0 1 3
38 1 12.775156777334397 4.310517051723215 11.848567566493672 -2 3 1
66 1 15.314859040980195 2.4950507940079634 10.796178350632989 3 1 0
549 1 18.0877925351361 0.03185590979331465 11.393428223379738 0 2 -2
416 1 15.678411777529197 3.144389600205628 13.773276684119663 0 0 -3
897 1 18.240338506804108 2.6828575547536424 12.211925789980357 -2 -1 -8
602 1 18.435276233016356 4.526773131930629 10.167389051781004 3 0 1
473 1 20.98474347218039 1.8993250321569692 11.059859345655683 -1 2 0
155 1 22.674368836462456 3.677398687110311 9.979611426623858 2 0 1
174 1 20.26940638500243 4.577923821587925 12.439353473765893 -1 4 2
58 1 23.286130094979566 1.3157796306795733 12.760500838770596 -5 2 -5
971 1 20.166127142269588 0.44519882799790234 13.422098677968414 0 -2 -1
859 1 24.727065539921 1.1272515871541802 9.772656715711335 -1 -6 3
642 1 25.03480614976444 3.306914229660879 12.005484602009028 0 2 0
31 1 27.781288380062644 4.469963144395476 11.012406859688825 -1 -1 -1
281 1 27.58373260154703 0.5972595783891361 9.782323906498721 -3 3 -1
184 1 26.088204972217405 4.644001167928388 14.036331435028123 -3 1 2
295 1 28.000884825790706 1.0254120440764047 12.516954545801378 2 -2 1
697 1 4.630942114737288 6.307635965730407 10.64702563791249 -1 3 1
213 1 3.115210079011705 6.710840743599552 13.762346995205037 2 -4 3
193 1 3.6761914560007565 9.19074402133548 13.26015028046954 -1 7 -2
663 1 1.1732090162614734 8.96543042110299 10.524473903881827 -2 -2 -3
421 1 1.989118497219642 6.252978146203605 11.612444514237037 0 0 -2
789 1 0.8649195669722923 8.964538111032244 13.451164772913966 0 -3 -1
192 1 7.264369271066118 6.432715524602212 10.183707407612502 3 4 1
904 1 6.162461552480455 7.397107276835353 12.952585539942627 1 0 1
365 1 8.904180118882847 6.203924004277244 12.87281011495124 1 1 -1
230 1 13.074528786998131 7.182463688260127 9.56179923697119 2 0 -1
47 1 9.851017034303934 5.246676595657655 9.868856858152714 1 3 1
595 1 11.12525765614697 7.008936150236983 11.771136723405963 -2 2 -2
288 1 14.066250422444652 6.705146833342209 14.100875909217722 4 -1 0
43 1 10.453316610720263 9.228374959242569 14.102338202850714 1 -3 -2
813 1 17.63934176578179 6.020630862213989 13.606985105471217 3 1 -1
27 1 14.604208899996381 8.353498151723665 11.508185846438428 0 -2 -2
44 1 15.647184457508638 5.538362249681714 11.618265237665192 2 1 0
46 1 17.326545604625927 8.501170227080934 12.411504867283684 -2 -2 2
374 1 18.89733917103677 7.94112936642647 9.894467183317875 0 1 3
574 1 20.275027982135065 7.628434577858341 12.983621666106814 0 -2 3
967 1 21.87231349518166 6.085724667120803 10.386275215818594 1 -3 0
154 1 22.41003597604462 9.46947810299697 11.80040700446052 3 0 -2
557 1 26.93558976051755 6.7826065510416615 12.126934980605128 1 3 5
792 1 23.859039371024924 6.186712161877925 12.479005714462579 -6 -4 -1
906 1 23.913871016403778 8.929633119314525 13.975227651094254 -1 -1 1
380 1 3.931261547438213 12.833870345560149 14.137979228898994 -1 2 0
731 1 2.588273946068905 10.828056987336273 11.28238208305537 -4 -1 -2
396 1 0.694043727412011 12.772562253187534 13.249535619000937 1 2 -2
934 1 7.102994450045058 11.698275655661215 9.668584732442145 -1 1 -1
655 1 8.325830476248038 9.774832621401384 11.370846374854834 3 1 -1
375 1 5.063573500179169 9.828776836234388 10.834726909004576 -1 7 1
888 1 6.803827854280167 10.61457785018662 13.526768414831247 0 2 3
832 1 5.8527226635331155 12.559042042994959 11.858625882230074 3 -2 4
147 1 9.005010003098565 12.754322914830258 11.93638371125278 1 -2 2
64 1 9.970985236112028 11.707321246917303 9.478326222824837 -4 0 3
942 1 11.662498005264693 10.305494650463269 11.803526824633993 1 3 -4
486 1 13.977553561881221 9.983314065126411 13.93595816393151 -1 3 1
141 1 12.447012407574542 12.583178842337489 13.469105609381035 1 0 1
126 1 16.621643705739896 9.777408293772815 9.483252981307784 2 -1 -2
864 1 14.499837749097066 11.900175796037063 11.56776276208172 -1 0 0
484 1 16.948279552700072 11.138337054089767 12.964450673478987 -3 1 -2
881 1 17.737627048906305 12.65687605593115 10.460893537375346 -2 -1 0
376 1 18.92327892982913 13.714926403067226 13.651292187250684 -4 2 -2
619 1 23.16855600624697 11.59344683832672 9.474641915277761 -1 -2 -5
555 1 19.415929558851627 10.457124063135527 10.62262064163455 0 -1 1
103 1 20.96680893244323 12.76205868820352 10.336099726851758 -1 0 -1
627 1 23.034013935972446 12.164314891512639 12.53113458875486 -2 2 2
630 1 20.096518749315894 10.877570414812476 13.466404188754304 3 0 2
14 1 28.099807108927486 11.885779493715516 10.711365582123797 0 0 -2
32 1 24.758568117613546 9.620721274493736 10.437697541231573 3 1 2
724 1 25.474907494674873 12.30360894866002 11.386085388733411 1 -1 -1
120 1 26.729799214590663 10.26914410972646 12.471523547076343 1 -1 0
475 1 25.635870926941845 13.181980721325775 13.98117319149483 -2 -2 0
814 1 2.813296577505082 14.402647979170288 11.312405072768563 -3 -4 -2
843 1 1.7327583436398226 17.362819416142955 11.136606475859882 2 -2 -1
982 1 4.693040915663652 18.09550124355427 11.471006181488166 2 0 -1
498 1 2.0569676827988714 16.21892871033529 14.210541252980898 -3 3 1
830 1 5.838699507547441 14.75934961885048 10.018941590070105 1 1 -3
922 1 5.476301738563235 15.351309943883173 12.892156296678028 -2 0 2
910 1 7.981604373883047 15.414199944402949 12.014910902118125 -2 2 -1
364 1 6.396765222971339 17.82885428548503 13.310025856723843 -1 1 0
960 1 11.639792928551875 14.312842001731946 10.426557336287837 -4 -1 4
933 1 10.718007007420876 16.806599843879326 11.57995575150819 3 -1 2
587 1 14.003741764771505 16.040789613903677 13.112984911851765 0 2 2
381 1 13.453361444695751 17.886460817520625 11.160194244364888 1 2 -1
984 1 11.14136255701869 15.080429904352332 13.956599678412573 -6 3 4
392 1 14.499858676359818 15.014867029352034 9.686909262900672 -1 2 3
448 1 15.936126207750023 14.329214505514594 11.590962535429473 -2 0 -1
165 1 15.986055063720498 17.3930886163187 11.117035576273134 1 0 3
402 1 17.552675882510663 16.093111403338447 13.04330601594585 -2 0 0
186 1 19.522460322985967 18.39761488561236 10.9455610376562 1 -1 -3
465 1 22.21239953588018 16.7280310222286 11.066787129764307 -3 2 1
300 1 19.51266646192585 15.59497750530477 11.226250804575828 1 1 1
763 1 19.18368674057503 18.722454834702507 13.692009433259049 -2 5 1
270 1 21.621204366065932 14.260390475247727 12.738475695076257 -5 0 1
900 1 24.196746456016275 17.36774360437941 9.632861087425676 1 4 -2