LAMMPS data file via write_data, version 2 Aug 2023, timestep = 4000000, units = metal

1003 atoms
3 atom types

0 28.422298224662292 xlo xhi
0 28.422298224662292 ylo yhi
0 28.422298224662292 zlo zhi

Masses

1 6.94
2 14.0067
3 1.00784

Atoms # atomic

149 1 2.3747167968797687 0.2072033057694228 1.2656660004733256 -3 1 5
523 1 3.946272359890005 2.5624721684230414 3.0486924260271855 -3 6 0
899 1 1.073326065792955 2.0762057815548816 2.9672533554752376 3 -4 -2
806 1 3.2398496805135064 4.518846781058583 1.4834943786874977 -2 -1 2
191 1 4.6709308008295185 0.11295921639657536 1.9896428350272322 1 0 -3
902 1 6.795357766762306 0.7306881080452102 4.399082833824459 4 1 -3
40 1 5.298814298532906 2.6915000748602664 0.07915717437923345 0 1 0
791 1 6.703565321948137 4.10430658495778 2.9861227060312094 -2 1 -2
893 1 7.561877528367403 1.6273681343885653 1.6168748040480365 -2 -6 1
386 1 9.783863724709548 2.0181653393531165 3.2575229500001037 -1 4 -1
240 1 12.137188481292563 1.0990566293362167 2.9178523553017626 -2 3 -1
856 1 12.16644422439698 4.236540701076761 1.8178303689366435 -2 3 -2
741 1 10.724406196145075 0.7446234904410268 0.34024110849651984 1 3 -3
99 1 14.544651092230396 2.5570471723817403 2.870256444822295 -1 1 1
520 1 17.684809694336955 2.2795668698025047 3.541029490559829 1 -1 4
95 1 17.00915952881878 2.8223774917262263 0.881390426708535 0 1 0
204 1 18.808398545823522 0.7948033132957371 1.0403646009082503 0 3 -2
118 1 20.87048366324482 1.7488323199436657 2.4002150760761256 -3 -1 0
479 1 20.24263216221722 3.6724901156843415 3.9577529482182583 -1 0 -2
168 1 23.59530102296428 2.7718846620700948 4.178822747580334 3 2 0
919 1 19.604956808724772 3.9578657363069416 0.624564486102684 -3 2 -1
138 1 22.436970544027947 4.158223052223848 1.7049116676607594 -1 0 4
288 1 26.228864620687993 2.6643172875231254 2.3589557683375766 2 0 0
326 1 24.044875106490775 1.85606720465462 1.0456492127640493 -2 -2 1
221 1 28.190896633958705 1.6075800658690704 0.71041648535286 -2 -2 2
808 1 1.3551982416031887 6.901633105728053 2.9613100934124565 -1 0 3
884 1 3.2147726894760305 8.16501834709578 1.2023664316496472 -6 3 4
505 1 4.428532863569226 6.113902122125826 3.8296082153323803 2 4 -3
2 1 0.34838157725128943 4.828879743800781 0.34587286281334984 -1 -5 -2
65 1 7.580446173029186 7.254602978504114 2.782100920653545 -1 3 -5
739 1 9.339862157671748 5.23467568422119 1.9342855630146216 -4 -5 -1
426 1 9.401879856564117 8.628660000485178 3.6776985686859773 0 -2 0
144 1 6.091159499793422 6.167630647079757 0.5349397466912228 3 -1 0
668 1 8.241975408667555 8.115420479924852 0.03318155309511597 1 0 0
476 1 10.496010450642611 6.173182021360735 4.1276947080931565 0 0 1
872 1 13.846990197181018 5.333982367166174 4.330565073989699 0 -1 -1
196 1 11.938791098761754 7.271895082172292 1.574070099413711 0 2 0
542 1 15.741251651011906 5.030748727311302 2.146892314195517 7 1 -1
227 1 14.634177746109316 7.640216598002928 0.3242444486596126 -2 -2 -2
338 1 14.918506624326103 7.521864866587853 3.6218680908820127 -2 -1 3
297 1 17.356320320077852 4.775989441017004 4.612094897907492 -2 -1 -4
365 1 17.460899068356376 8.558211278743581 1.135534336425033 0 2 0
37 1 21.727688888788688 5.379066671275096 3.7801565834787487 -2 -1 1
310 1 19.047097191755576 6.192164873844422 2.347977701818849 0 -1 -1
108 1 22.334514555798773 6.877934250924785 1.1015151133829806 1 -1 -1
329 1 21.040788049090118 8.316483360773558 3.7536863287632065 3 -2 -1
939 1 25.28541415427773 5.223659132514469 1.0399853631790033 1 1 1
809 1 26.990998002890382 7.4244035976046545 1.9227155342072462 1 2 2
495 1 27.544407431133006 5.041495084744406 4.101283192525253 4 -2 -1
228 1 24.56064647824707 8.081184400511486 3.3725083239773253 -2 -1 -2
627 1 24.299347504904897 5.390358735766908 3.675186258179785 -1 -1 -1
822 1 3.5230640525084573 11.196520491893851 1.2076998240158574 -4 2 3
277 1 4.273394407565752 9.906013562703928 4.447686157533 1 3 2
456 1 0.2538831892845403 9.824059102419028 2.885722124470679 -3 -3 -1
969 1 1.691764037787387 11.871218059151882 4.033969741602542 1 5 0
530 1 1.1299067173183437 12.250531019001984 0.15064658843650103 1 2 1
678 1 3.5463088399086455 14.033985208565383 0.09298852313125039 3 1 -4
486 1 5.798449090599465 9.668805812513568 2.046326356861299 2 2 -2
458 1 4.855474338519354 13.046645513341614 3.7115645233571546 3 -3 2
287 1 8.293518656486528 10.409427981777592 0.8876359409963608 0 -2 0
896 1 6.137823900250273 13.23624393592713 1.1532121480918847 0 3 0
46 1 6.877616758079993 11.03723634379903 4.276519193263738 0 -2 -3
807 1 11.25971623207156 10.207525934663055 4.332568506291948 -2 0 2
666 1 9.893935726548248 11.824014906532994 2.390019494656343 -3 1 1
842 1 13.666283502306495 12.67076162919187 3.65958267341753 4 -2 0
888 1 14.961922402637782 13.912367575855729 0.4742094525692179 7 1 7
98 1 16.44142075760834 11.620435618118995 3.434679438370195 -3 1 -1
145 1 14.654381913630738 10.869763755677363 1.0933565078089933 -1 -1 4
333 1 18.053098877098403 13.855727131949449 2.6954357623391867 -1 0 3
826 1 20.458895403253432 10.284959025541937 0.3305756477204312 0 -1 0
14 1 19.857971494860955 12.933361733667024 0.52777558362893 2 4 0
325 1 23.241127499540813 9.949899039348267 1.0093196183331743 -5 -4 2
847 1 19.42901849272084 10.96879497450474 2.776488952023929 3 -1 0
369 1 21.659902552769584 13.170500514895773 2.934708772881503 -2 -2 -3
465 1 22.98695472302784 10.217296499203142 4.470727435458481 0 3 -4
961 1 24.349690874269132 12.400324163632176 2.8200724399154704 0 1 2
866 1 27.520465262871923 12.410103170329206 1.9198659489179368 1 -1 1
600 1 25.64587905638547 9.890695196642639 2.037460090060246 -2 -4 -1
314 1 3.018146442499222 15.370988322754352 4.394664505317341 2 3 2
883 1 1.377303235901509 17.398768256943885 3.2115133881809377 -1 0 -1
716 1 0.9934716271044817 15.352936164802072 1.478564459613393 3 1 1
971 1 3.517995575973756 16.767894033327472 0.43095059903846744 3 0 -1
429 1 0.561536039194389 18.610029842290388 0.32291209246722524 0 0 -2
594 1 0.13594222253518642 14.214560330452233 3.9047571051027194 1 1 4
298 1 3.8479971967592213 18.271190224192814 4.319980078400754 3 4 1
449 1 5.378072411216751 16.31975396503161 2.9626111856290134 2 -1 2
752 1 8.314474817404323 14.57354632898797 3.286313461727859 -4 1 -2
999 1 8.017427455395627 17.99307960808963 3.23209175326771 2 -4 -1
86 1 5.267229137524186 18.75722949092432 1.4858701914786718 -1 -3 -3
876 1 8.001516897272202 15.698857845478903 0.18483012402739107 3 1 0
940 1 10.356479903202862 14.585599132013982 1.1622729618705157 3 -2 4
266 1 12.884522015951966 14.348105816931675 1.7496836709597483 -3 -5 3
172 1 11.154044158489047 15.262154261265241 4.483112122255372 -2 -2 0
983 1 10.926288294016173 17.896148506024122 4.489250909379295 5 -3 1
285 1 10.385935775684683 17.60514486965699 1.7127541369781638 0 -1 2
254 1 13.755048884539292 17.296069182224112 2.760740616542505 1 -1 2
22 1 16.062155891487567 15.20410098121729 2.5841861573243663 4 -1 5
772 1 16.407238288245395 18.130312835846105 2.179768572861494 1 5 -3
703 1 18.26157073604967 16.262843832112807 1.0916864660922776 0 0 -3
259 1 18.55755296511945 16.815425942882708 4.131515576731258 1 0 9
316 1 23.19884048335393 17.982094080668954 1.3711809065183935 2 -1 5
55 1 20.63263309801903 15.787330297778393 2.1690582746596787 0 4 2
576 1 21.333129138090637 18.019864236303253 4.047709082153657 -3 0 5
657 1 23.24381703470257 15.849005186891825 3.5847811235733382 -1 3 0
656 1 25.74107152841337 14.881766794657242 1.8334314790934045 -2 -1 -5
765 1 24.34087663210956 18.69149816412112 3.976388821350504 -1 -1 2
732 1 26.834473083927108 16.889924209416716 3.3266873281196747 -1 -2 0
651 1 26.65332012626615 16.91568016323824 0.08305631517831813 4 -4 3
307 1 2.535702245988151 19.705870841418253 1.7244834436029655 -1 1 3
619 1 0.8866882327059191 21.898275394770465 1.2500025432913062 1 0 0
300 1 3.551588411454127 22.686253056793213 0.6884189375058803 2 0 -3
924 1 4.779096979466687 21.57080292127589 2.8864198843242392 -3 3 3
12 1 9.014127000397703 20.798064272823726 3.735179351596852 0 3 4
332 1 6.798858679337023 22.949019819625267 4.671720315311395 -3 3 -2
676 1 7.226198126036547 20.75386772166303 1.5250560492430563 1 2 4
756 1 6.1365066366078205 20.217032960230533 4.552156717413051 -1 -1 1
77 1 12.751335629376054 19.93523264783837 1.0687492934571372 3 2 0
10 1 12.456435534040716 23.131839721171268 2.5269886318826003 1 -2 2
766 1 11.596750795837254 20.547774000693202 4.275618020691063 -2 2 4
931 1 10.401523456924643 21.37326694850709 1.2037782473667251 -1 -2 1
837 1 14.898041350747883 21.18805721666084 0.5684862799228968 2 2 1
257 1 17.417065007364958 23.03279741374933 0.07697115165596055 -1 -3 4
681 1 17.97598312153905 20.254504904487607 3.4943913246767386 2 -4 -2
603 1 15.322550596199303 22.32804345348896 3.346980121824415 -1 0 -2
817 1 14.254483426903233 20.022516285681874 4.000844083597618 2 1 -1
500 1 22.066978643408373 20.21141431187828 3.0751714389781317 -1 -4 1
582 1 19.620565789982408 22.5847019441684 3.039578424452917 -2 -1 0
586 1 19.53649795540697 19.151393843333604 1.1866786471478112 -1 -2 3
635 1 28.33352849311222 19.982768367233994 3.0512758194401717 -1 -2 1
210 1 25.71005507332469 19.012901251392794 1.4125432285718866 -2 3 0
75 1 24.033417799482894 22.11239375331571 4.426913543453981 0 -1 -2
675 1 26.325283063636597 22.20318414118381 3.3097909386429234 0 -3 1
348 1 24.613899434883894 22.21580675144631 1.0305671434782817 -7 1 2
684 1 3.3711991114780226 27.10940137846098 4.4031793107614385 2 -2 0
968 1 1.9010905736453168 23.97132514274831 3.514711463766767 -1 -2 -2
647 1 3.9672139938073565 25.690486937402653 1.8239236595469355 -2 2 1
6 1 0.8971595193004704 27.158394857360186 3.576862593960358 -1 0 4
203 1 4.731857858834329 24.636260933618725 4.2434462376261095 -1 4 2
727 1 1.6459911898699597 25.58253249117463 0.4203892028310592 1 -2 -2
152 1 7.273587681327235 26.79450697444272 0.47314473203329754 2 0 4
938 1 8.339127423944884 27.220964664570896 3.2894966548752556 4 3 2
344 1 6.092797543353193 23.857621248220493 1.4497403128987056 2 2 0
5 1 6.224237324715212 26.59211661900366 4.533913729991279 -2 1 -2
82 1 8.50859891644108 23.766278803463937 2.343554660742853 -2 -3 3
356 1 10.716250972835365 26.741251470522474 1.8743292824728144 -1 0 -2
17 1 13.734301284923845 26.847965909140775 1.490823821376052 -1 -2 2
59 1 11.53394668862298 25.73332444975766 4.288787990643234 -3 2 -3
372 1 14.113171740103578 25.25024782086958 4.669996663353493 7 -3 0
707 1 11.156396478903744 24.496878085996542 0.35216442100182266 1 2 1
328 1 16.031602974787074 28.179029926651047 0.3310273540862516 0 -2 -2
558 1 18.333946934923883 27.76800540032665 3.369042448568552 3 -1 5
763 1 15.648467817598222 27.677736709018983 3.5017302291819457 -1 1 -6
443 1 16.136918895321244 25.28317701303497 1.7761813206225825 -3 -5 -3
199 1 17.463053186226837 24.569466520661003 4.185977762666609 2 1 -1
578 1 17.71511222691767 26.191165288509783 0.16042799504417715 -5 1 1
397 1 22.162385173741434 27.433601889578167 3.329465318534661 -2 -5 2
905 1 22.370671723412435 23.840759275866052 2.002009204893108 3 3 4
47 1 20.3042198216349 25.912863233915964 1.6452723464675214 1 -2 2
907 1 22.094539378484853 27.894339715812013 0.48480843026073667 1 -2 0
522 1 24.933182621833847 25.193587771846513 2.6547450859741457 -2 5 -6
19 1 26.49549795529374 27.591821725229703 2.557789122884277 1 1 1
471 1 23.788847657333875 25.578336221279244 0.05126676190651516 -2 -2 1
154 1 26.941406814445124 24.307120765270902 1.1366120840742997 1 3 -1
273 1 2.6321822036553595 4.468154983621316 4.7842438686253175 -2 2 -2
401 1 0.2963314592327753 2.6067465964662486 8.896769264369057 -1 2 -4
974 1 2.8495608730081665 3.0504957598563576 7.502197037727968 -1 5 2
735 1 1.385713980652526 0.2612247103581202 7.079667625625139 -1 1 -1
848 1 2.981506770936919 1.2785294700226326 5.133103440081327 -1 -1 -4
463 1 6.629694990641862 4.536959192615194 7.987665990473159 -2 2 2
623 1 5.175614283852955 3.151097704999192 6.005604148891246 3 -2 -2
789 1 8.697884094482168 2.3192879613790427 5.733677857254143 -2 2 -1
770 1 9.136064347685991 3.719128654470667 9.015056219231697 0 1 0
229 1 7.206569387123362 1.1043917155336416 8.600208356513406 -2 -2 1
854 1 12.081397385316293 2.9181146437702634 5.357461913441842 3 1 0
801 1 13.596995471817825 1.3013698575067445 8.02858298524848 -3 5 0
477 1 10.726985826113337 0.6011489940208733 7.3529727530684665 1 2 4
164 1 10.840787503429562 4.652532262664246 6.8826151415290315 -2 -1 0
167 1 12.430148251889776 3.2033732814117615 8.898241896484672 -2 -1 2
260 1 18.711250788986728 1.168825500311776 6.44094444849882 -1 0 0
324 1 16.45331310260188 2.458016662481966 8.506057862323594 1 3 -1
794 1 14.977680464121631 2.8028174746475645 6.119938977376602 1 3 3
515 1 21.68190270508734 0.8095014387701726 5.709984423920634 -1 -3 -1
340 1 19.075691114910875 3.5838337715604767 7.217030712312386 1 3 2
454 1 21.408359696659115 1.5224890986431985 8.258462314425275 3 -1 1
76 1 22.10847993233515 3.83570607549936 6.533720598594717 1 2 3
189 1 28.4068321065477 2.601685327990315 5.828150936286727 -2 -1 -3
639 1 23.965373015081546 1.7848718313282967 7.493861139905742 -4 -2 2
863 1 25.7379982383521 1.3015841300821858 5.061972577727266 3 1 -2
377 1 26.673745684580393 1.1925410257528883 7.735126926735412 -1 0 0
91 1 25.27691716512086 3.841991775090036 5.9816341404679205 -4 -3 -2
964 1 26.741411204598045 4.587127051982062 8.750482047083446 1 1 2
147 1 1.9483852818420522 8.242642097056532 5.242815235334747 -2 0 -1
736 1 4.113481971838262 5.98975394264192 7.49306036730623 3 5 -1
80 1 1.3759299520834722 5.646087348676315 7.234933720608704 4 3 -1
825 1 8.032684737478304 5.534676333874356 5.397862188042355 -2 2 -3
305 1 6.388159265110904 7.772355862396332 8.074690085185466 -2 2 5
430 1 6.398619032653628 8.233972467298745 5.1200348023459545 -3 0 -1
632 1 9.33882025731839 6.756871773931906 7.365614503364542 1 5 0
321 1 13.794880146273677 5.114840955577219 7.358999665577356 -1 5 -2
357 1 11.906606976138056 7.40619986619924 5.995295525157259 0 2 1
624 1 12.987569005657848 8.322631301634278 8.63068525260791 0 -2 -2
659 1 10.101034127616275 9.081332934396134 8.75003373158572 -1 -3 0
42 1 14.948798881082844 7.783491089329652 6.866785799502423 -2 3 1
784 1 17.328831794035352 5.912997254999959 7.826629641807093 -4 -2 1
667 1 17.470730557593818 7.726521253469842 4.9038305146943495 -1 3 2
179 1 18.47296653731459 8.241959789737564 8.703309214730265 1 -4 -2
62 1 19.852804414502597 6.062547084778456 5.679304703950268 -2 1 3
233 1 20.314356034472492 5.703007990320599 8.481901629288421 -5 -1 0
87 1 23.243167399296517 6.6609099963448015 5.977935858551497 1 1 -1
327 1 19.902524868294584 8.353550268671718 6.338158836967668 5 2 0
991 1 22.289189833834854 9.083288962471531 7.560270343322344 4 -5 -1
433 1 27.013842995270494 9.025883040248436 5.1000917977288465 0 -1 -2
450 1 28.032385840470095 7.1328158487054845 8.866947074820434 1 -1 -1
51 1 26.567389938890503 6.612281279662296 6.380476219957318 1 0 2
870 1 23.825931603463324 5.327503067214317 8.106648079164787 -5 0 0
375 1 0.8527975161310913 9.745536595227325 7.547744582792645 0 1 1
875 1 4.043609572926636 9.55867117111974 7.549132969645766 0 -3 2
886 1 3.8663887033368205 12.173231424502523 6.1756656832156995 -3 1 2
102 1 1.260849338238426 12.80213583225317 6.524392423043831 1 1 -2
546 1 3.5190022559394714 12.269102136729993 8.788571770999862 -3 2 0
45 1 0.6732891411649227 12.617537418789707 9.027700460385454 -2 -1 4
628 1 6.646399210744424 11.442157905168312 7.020708766028682 -1 -1 -2
730 1 9.356508450115852 9.49663084535022 6.015551806626373 -4 2 2
785 1 8.629033013102047 13.977730560134074 7.906311962656646 2 1 4
889 1 7.586292497255863 9.891423667484093 9.353472431222714 3 -2 -2
797 1 11.932987382471236 10.238029798405707 7.064186555697 4 -2 -3
39 1 12.584474155060265 13.924668800282117 7.568601351448177 2 6 -1
865 1 14.06079045611635 11.070576635763782 9.021893630797063 0 4 1
922 1 9.494532388138111 12.396265953715037 6.207922844594877 -1 -1 -1
186 1 10.763835000347573 12.215360136922518 9.27067691480007 0 -1 3
459 1 17.953319274575485 11.29023902335912 5.614792826693806 1 -3 0
990 1 16.207336567508094 10.654510696492002 8.110467832573855 -1 -2 2
206 1 14.523062594571009 9.853998305057134 5.3660744205582755 -1 0 4
419 1 15.492942474857795 12.79580997442125 5.8084570890686855 2 -3 0
29 1 17.905469095882623 13.69067455093897 7.870918732975644 2 5 4
987 1 15.678951640890212 13.422182447219518 9.350322845229279 0 6 0
35 1 23.244887233572072 13.48173146615136 5.716463362688842 1 2 0
524 1 21.22424257097323 11.520198628525359 5.717203909996291 2 2 1
552 1 19.253596315297795 11.393972271717592 8.519100454803544 -5 2 -2
452 1 23.08117554354526 11.89220400550004 8.792424493312337 0 4 -2
405 1 27.340235618276697 11.988261901644922 4.99718305534417 3 1 0
312 1 24.628146047167792 9.949507303545843 6.356244910322352 0 5 -1
877 1 26.226277418181752 9.753837684992732 8.61748965577399 -3 -2 -2
993 1 26.33789066871234 12.665960124332106 7.157423225479157 -1 3 3
293 1 25.452549073083482 14.156313421792303 4.833689943460418 -4 3 -3
339 1 1.7064729220786579 15.43829552026493 8.444320219060833 3 0 -2
238 1 2.118494672140841 17.672759121108733 6.043028081102884 1 0 0
933 1 3.5610767108066814 17.994768325017034 8.76126510534043 -4 -6 0
493 1 4.106481174123745 15.008078484131838 7.142009056718643 -1 -1 2
989 1 5.890917854429911 17.51184943769684 5.904481393794344 8 1 1
208 1 6.710463714725829 14.301746924050121 5.793766655205016 1 -3 1
591 1 6.686898120437922 15.77532211406908 8.759176256498572 2 0 1
158 1 8.77714937846947 16.595133634876994 6.11782579161237 4 -2 -5
24 1 6.465657222554105 18.689380500844695 9.22349754710049 -1 1 -1
861 1 8.973792719001539 17.38858890574607 8.898530428777455 0 0 1
20 1 11.099967300153944 15.782625983970226 7.482619493442501 -4 0 2
645 1 13.286631111537584 17.760109441398164 5.679520760510414 2 -1 -1
402 1 16.88088066826147 18.545612706205766 6.121683739042703 -3 -3 0
956 1 14.282561958837187 15.461497381117072 5.135784213121259 3 4 1
774 1 16.775344692079024 15.274302313141472 5.515434433374297 -1 1 3
464 1 17.393994933494522 18.71962730401442 8.761685685458895 1 0 -5
442 1 14.80728230971443 15.750089117853419 7.8450957924310964 -2 -4 0
33 1 14.254802682550206 18.9340827157931 7.781545672417356 -1 -1 2
679 1 18.89970502326737 16.333198342373716 7.867973916504846 2 1 2
621 1 20.119352675986555 14.314147224557447 5.12927703148665 -1 0 1
396 1 22.11458502478445 16.23721769685725 6.314088288595959 0 1 3
691 1 20.920447646695962 14.258421453035732 8.087659033035367 1 -1 3
569 1 23.084171111701064 17.353212346098736 9.034853553094116 -2 2 1
743 1 25.043370514911263 15.10354858191495 8.796185686723431 5 0 2
92 1 26.133150265665837 18.1964790425316 8.049380506783544 -1 -2 3
771 1 24.576783283932407 16.980212789105053 5.968590156654093 0 3 2
804 1 28.170566556740013 15.814143269028843 6.697206801707422 -1 1 -2
306 1 1.7671610058539204 20.517360126296357 5.0102966795403425 -1 1 -1
934 1 0.38107014930074085 19.474649491694848 7.267120117655005 2 -2 5
764 1 4.136816486522199 23.065396390461895 6.037076821472913 -1 -1 0
597 1 1.5423306567947057 22.787412382558635 7.845697205720745 3 0 1
49 1 4.132278822120757 20.018585648353422 6.650215059971625 0 4 3
487 1 4.209730212487327 21.254517672737677 9.205102977722067 0 4 2
694 1 8.265871089015814 19.24811048546728 6.628150156541938 3 4 1
898 1 6.441830772650758 21.931155558965653 7.013015410034785 0 3 0
531 1 11.02565606469835 23.02436809086359 4.740092818203907 2 -3 1
38 1 11.257371078548141 19.17949112719508 7.463123460677944 0 1 -3
115 1 9.645425207335323 21.574871347977016 6.5001846739111535 1 -1 1
646 1 13.197245259974675 21.637222063403264 7.027217190064198 5 2 2
754 1 17.28480226404019 21.657667795824562 5.873177852617574 -1 2 2
50 1 15.908581383543266 21.522085127842292 8.137724087767127 0 -4 0
711 1 18.590111106891612 20.99200123798099 8.944342344718974 -1 2 -2
970 1 22.582151046634387 19.913905097274007 6.140455624066711 0 1 0
585 1 19.722010354927676 19.196073341172596 6.034726484619482 -2 3 5
551 1 20.9844053789515 19.084239138053192 8.881415711566715 -3 -3 -2
737 1 21.23391515793092 22.356511921770586 5.107961394986832 5 -2 1
561 1 22.0493407051028 22.434608301832725 7.82481272379698 1 -1 1
602 1 19.22569273657026 23.149921579368353 7.023980350736974 1 0 -1
900 1 27.936417750564125 22.49541984185166 5.787403130602056 -1 -4 1
403 1 26.896245995885344 21.111470366645705 8.756916218636295 -1 1 0
626 1 26.395628026700123 20.388302026512605 5.819694051536472 -1 -2 -1
544 1 24.79658289117195 23.18871790956097 6.637021301580055 0 -4 1
768 1 24.05298510762851 20.382859530990373 8.902301485386952 -2 1 -4
241 1 1.8475596751112384 24.869509214947715 9.435036917941089 2 2 -1
565 1 1.32415024522349 25.627875292090124 6.4260801025332555 6 -1 -4
104 1 4.358277570531943 25.16200907397504 7.088513736057288 1 1 -2
412 1 3.0646053460605756 27.559787813040433 8.871772515663125 3 -2 -2
385 1 8.535422499050618 24.914975498027914 5.062463590040302 1 -1 -2
642 1 4.7506262007129525 28.41917137808596 7.296198843810668 -3 -2 0
175 1 7.425973491485645 27.905144170561368 6.727730458911853 -2 0 1
860 1 7.059217618750421 25.01367148688264 7.674361235746572 -5 1 2
84 1 9.808443567210984 28.29564970640499 5.1308937525292695 2 -4 0
818 1 9.745388516299277 23.806229256772163 8.422140476885893 0 0 1
299 1 13.149368353025169 28.36405401300509 5.386643485828616 0 0 -3
753 1 12.321051534142665 24.347527339656523 6.348662539859052 -1 -4 3
96 1 10.731197973920109 26.57786770605777 7.45348210000615 5 -2 5
836 1 13.230722532358069 24.250665586856115 9.168326702053086 -3 2 -1
708 1 13.872424048281767 26.536209901240714 7.823019639966028 -2 0 3
174 1 15.416754853522287 28.228422033914075 6.7367101521286274 3 -2 3
252 1 15.500745192078707 24.42843807665616 7.336128953979804 0 -3 2
185 1 17.946850247372726 25.983887495716584 7.0838341478868 -3 2 3
124 1 19.52952271415449 27.954546542163303 8.664872656061899 1 0 -1
319 1 20.44801096580393 26.731704878955185 5.355320480780542 2 -2 1
538 1 22.845853396486465 24.741268395309103 5.648609237055735 -1 -2 0
683 1 22.42138820375169 26.967891794050608 7.555056225298464 2 -3 2
308 1 20.368420838654085 25.29932165818136 8.62596025043242 -3 -1 0
71 1 27.403674291811765 24.550842230402225 7.694665006695702 -3 -2 -1
469 1 23.79113110890758 24.41838200529075 9.234652131409916 -4 0 1
973 1 27.641736614368117 27.541792708519015 5.561944655226406 2 0 0
18 1 25.665104443647405 27.137551103057106 8.151928643925377 4 0 0
142 1 26.317345317169647 25.162452873025714 5.020087946935297 0 0 0
830 1 24.430980742478752 27.408944242520892 5.633316689021508 -1 4 -4
734 1 28.147262527740438 27.299780717095505 8.74255938889507 1 0 -2
262 1 1.689619121984968 4.250509162308335 9.754687175614183 1 -2 1
525 1 4.313666780905241 0.9994397363532821 11.889463385865687 2 -1 0
358 1 1.3287828499608894 0.4947347305433983 10.465473402117112 1 -1 4
353 1 2.0462418887023666 2.768211463136947 12.538015731210677 -1 -2 -4
162 1 5.831707037926068 3.453772805790687 12.555894110675435 5 1 1
48 1 4.8644933137963795 3.084431062225835 9.89601146197669 0 1 -3
815 1 7.480313986056366 0.9464250310061988 12.300273807667356 -1 -2 -1
213 1 8.217382121238211 4.193560719728544 11.295391418215312 0 -3 0
473 1 10.98373041353467 1.6493272789963989 14.00425851710464 0 2 -1
738 1 11.194659502506566 3.970678149737218 12.241198942674934 -3 4 -2
879 1 10.529878798486529 1.588224825515778 10.517353359374932 -2 -1 -3
392 1 13.975423205603962 0.7534333765099894 12.998108128301963 -1 1 3
110 1 13.889742622658591 3.7552953018663136 13.834657098959763 1 -3 3
802 1 16.020852013752762 0.2088337689532878 9.562704248330842 1 0 0
421 1 14.256572881743518 2.7125239248104127 10.912339570057174 1 3 0
532 1 16.65076785596696 2.75632314352252 12.47887639413754 -2 3 -1
760 1 17.563327555531693 4.715837482689671 10.508320521628375 -4 2 -3
488 1 20.461761910518927 3.22367164505939 9.886192887416126 0 -2 0
364 1 23.67575945989155 3.357890492398527 10.074764474984422 -3 -6 -1
715 1 19.222222713081617 1.3413418764578728 11.584791282959532 -3 0 1
336 1 21.812392478686284 0.9130667230100872 11.177173532343511 -1 -1 -1
416 1 21.997401105532692 3.024387167427428 13.466337521617096 3 0 -2
832 1 22.048002961040194 0.03558834443436254 13.512855208845785 3 0 -4
805 1 19.262391976496392 4.53714580201211 13.01636704406492 0 0 -1
434 1 26.61066120173641 0.1446698367714366 11.048852791361172 0 7 2
334 1 24.459704026133632 2.267585277959087 12.681662773789027 2 1 -4
345 1 26.86464597723087 3.009389202666478 11.883943734501074 -3 -2 -1
1 1 28.087067073512173 0.8651788769587584 13.391403984484892 -1 2 2
291 1 3.7417465785877697 5.808801430216648 12.517636457615437 3 -1 1
496 1 0.7788824785947234 8.548470166176212 11.92361196464968 -6 1 3
590 1 3.1535447375075862 7.5781914696928325 9.924782927397207 3 1 1
383 1 3.5554435268466245 9.121478673137952 12.948519450006495 1 2 0
965 1 1.2030039759636537 5.356752270220016 14.133598921145794 0 -3 3
731 1 5.376662405351737 5.582745619629134 10.448619013714165 3 0 -3
418 1 7.3053125920019175 5.8696136948851265 13.52503669697463 3 -2 4
811 1 5.833542735686999 7.995939342291274 11.91792171994722 2 1 0
613 1 8.196091486793758 6.545928743447136 10.180615300443634 2 3 6
605 1 8.547159290748555 8.42626004977438 11.826323780617539 1 3 0
630 1 10.922514946663679 5.865180765708444 9.728431333039067 -1 2 -2
680 1 10.29070026754968 6.7445206909587805 12.850552363307326 0 -1 1
631 1 12.974170097062583 6.353472015487774 10.995250785625275 1 1 1
891 1 12.553688117245127 6.132849603182234 13.898166291967076 2 0 2
337 1 13.930787276485477 8.404409763422109 12.990030464310186 0 0 -4
560 1 14.887626437841961 4.935737194238999 9.716406445387268 2 1 0
489 1 15.577738166509757 8.081541706825815 9.622949193069571 -2 -3 -1
315 1 15.445769794248024 5.335654025243104 12.13570751853195 0 -1 -2
514 1 17.730152227410226 9.445016198576738 11.347546231957317 -2 0 -2
978 1 18.892673792677904 6.5022264319008185 10.947851817797199 -1 0 3
182 1 16.586478093473257 7.0310824292208824 13.546218191003954 -3 1 1
9 1 20.732542341932508 8.934113721461234 10.421771459079926 -1 1 -1
248 1 22.829120633147422 7.425700416219765 12.880157515205589 0 -1 1
955 1 21.275318276964985 5.316570394260667 11.41203607943424 1 2 3
527 1 19.369609335969862 7.885548598324038 13.411948427023859 4 2 -2
425 1 24.40827050553597 5.510028656465165 11.750969705235228 1 2 -2
350 1 28.235112970138715 5.93389344563855 11.495205314214681 0 2 -1
499 1 26.407377803178345 8.419060264742416 11.233984024562634 -2 1 0
406 1 23.907031872974095 9.088109533359843 10.86421261272135 0 0 3
156 1 25.041363232597504 6.907754474385608 9.552146300212776 -1 -5 -1
599 1 27.009904386569943 7.148372477896734 13.785792405089616 0 2 -1
211 1 2.0201477664482037 10.045766834455575 9.731506063464975 2 1 -2
30 1 2.843567185958583 12.038899100812799 11.656407496642784 -1 3 1
57 1 0.9674968632837829 10.829005498432345 13.882977371698463 1 1 -2
751 1 5.0214477400699336 12.240660285842473 13.502945444531827 1 1 2
862 1 5.0069358267925 10.118530317938522 9.953862034356824 0 1 1
827 1 6.832998703215905 9.969172732563779 13.720269698184529 1 1 -2
101 1 8.537949965800676 11.242150233003715 11.62848577775508 0 -3 -1
908 1 6.396956952517418 12.835227410969136 10.129022499914266 -1 -1 2
120 1 8.971270317495573 14.080568259656841 10.904471095136163 -1 -3 -1
945 1 8.277073048369266 12.457960232054239 13.774279923496557 2 -2 1
123 1 11.363346401575551 9.772987476392856 10.924241517512487 4 -5 -2
322 1 13.398644060589971 13.278054266333111 10.900689991041327 -2 -1 -3
295 1 10.986253508752762 13.131736606252812 12.676191363126536 1 1 -1
851 1 12.904801206813493 11.414572083588313 13.568744201848988 1 0 3
927 1 15.20092451945135 10.826974456310774 11.311959054610108 -1 -1 2
957 1 17.575804700444007 12.46315216518685 11.235973757365787 5 -2 -2
280 1 15.015004528714055 13.003490430892706 13.85357397351812 0 2 -2
161 1 19.067008971288853 11.391204985092012 12.754220792858384 1 -3 1
943 1 20.842624403965065 12.05964619730514 11.021674291897645 -2 -1 0
574 1 19.228841595507788 14.193856635045012 10.22633913871403 2 4 -1
506 1 21.695883086928895 13.085035156648756 13.850380125405444 -3 4 -1
688 1 22.039984068584065 10.380610805020886 13.449303395735685 4 -2 2
568 1 25.819866380659096 11.935519383189972 10.038348137123606 -1 -1 0
494 1 28.28511729257499 11.421403513790521 11.425482097558206 0 3 -4
100 1 23.87046547509661 12.245610502594655 11.520071915333482 8 1 -3
359 1 27.25692364077849 13.84145652125658 13.055029940543788 2 0 -4
871 1 26.010327870147446 10.690257998726878 13.069156981513663 -1 3 2
68 1 0.4762992898053045 17.56161605384079 9.764232010025697 -4 2 -1
652 1 3.805158414579985 15.605255158244814 11.230735599556084 1 -5 1
320 1 2.0314489639010986 17.440586898442515 12.400805854886745 0 -4 -2
614 1 1.3103084747659939 14.41473466013375 11.524248300189923 -1 1 0
556 1 2.934609383384994 15.224992975722206 13.77172583760933 -2 3 4
916 1 4.68242480230973 17.47514407533125 13.39556457872043 -1 -3 1
580 1 6.6285191291200745 14.894197227462309 13.754072196627842 1 4 -6
15 1 6.494638507916043 16.20976403404501 11.475993953821964 0 2 3
641 1 9.367170118397075 16.84228471828472 12.346038469462743 -2 1 2
176 1 7.0255362251279 18.851982929967498 12.376137901951202 -1 -4 1
226 1 11.636731819629391 15.814532083584771 10.358254430934842 1 4 4
382 1 12.235616809874728 17.06298157575659 13.345800542246232 3 3 4
509 1 17.373806249543414 16.685263538998708 10.211293397473298 0 -4 2
90 1 14.887941710676124 17.624988340976707 10.710990280444436 0 1 4
537 1 16.469797379709725 14.573824310947499 11.99764906471855 -2 1 -1
947 1 14.852429628777886 16.04940026256888 13.455668361671458 1 2 6
960 1 17.489796418506906 18.110653792567902 12.338624936235263 -1 1 2
761 1 14.504126380628975 18.936885948644004 13.088586878290004 0 0 2
31 1 20.357597012254647 17.798550160931416 13.598799408414434 -4 -1 -2