LAMMPS data file via write_data, version 2 Aug 2023, timestep = 15880000, units = metal

4002 atoms
4 atom types

0 49.42095145851651 xlo xhi
0 49.42095145851651 ylo yhi
0 49.42095145851651 zlo zhi

Masses

1 6.94
2 22.98976928
3 14.0067
4 1.00784

Atoms # atomic

1725 1 0.8289314864965597 2.7179464213847475 1.9712552979140434 4 -2 0
2527 1 1.0537604116866173 0.20323987765087662 1.8997429232919707 4 2 -2
2053 1 2.190966151602735 1.1829016200711453 4.1697657607768415 2 2 -2
3785 1 3.8646347594387964 1.5393051113136782 1.6483871022970311 3 1 -1
557 1 2.709613985301587 3.691644745940143 3.922268378772378 6 5 -1
3719 1 5.672766867890216 4.348011420099021 2.0888310648523256 -2 -2 -1
218 1 9.158896684615993 1.9939074478113896 1.7661283665261565 0 -1 2
3300 1 9.03986826295526 1.5016000311867834 4.654370845892185 -3 7 6
3730 1 7.727906055830263 3.7960065747621705 0.37455068185909507 3 1 -1
469 2 6.502631928289207 0.20077068653745503 1.6865654874885516 0 2 -2
1397 2 6.371679443294805 3.1434124353840125 4.890607732129769 -1 -4 3
2834 2 12.29212109220346 1.5572684201086058 2.8245000090758188 -3 -1 3
2772 1 10.382213718448325 4.203159188543203 3.8036447309813908 1 1 0
41 1 10.693711294601382 4.143959309965554 0.2829496266129315 -3 1 4
3117 1 15.560005995692537 3.6557351206690734 2.7714344022108763 0 -3 4
3831 2 18.54588543663699 3.7757358207767395 2.90701153950219 -2 -1 0
1885 2 17.02131148306335 1.0159059949141045 0.8597389158561666 0 -1 -2
433 2 16.23415590037659 1.10956048564606 4.834424677556234 -1 0 1
1424 2 21.740816572392028 3.168073777767461 4.50622167553676 -2 0 -2
3633 1 24.57701620339848 2.4133692075258613 2.679163682543181 -2 1 3
1439 2 22.228168752064413 2.9722981470948375 0.9102952485461648 -3 -5 0
1468 2 19.91611685587771 0.6389876522476032 3.6097777127846573 -1 2 1
118 1 24.656565445057982 4.722097426132714 1.4397423825093736 7 -3 0
1813 1 27.745702847470017 4.102054176939785 4.058994156812398 1 -3 1
1228 1 27.27477242807998 0.976522237171002 3.2250274979665923 -4 2 5
1063 1 27.69868750342672 3.7493135966739124 1.4938587022169287 1 -2 0
775 1 28.0407012987656 0.6059799923068877 0.713064205591389 0 3 -3
2670 1 30.036561089119417 2.291844574790572 1.2772468736117617 -1 2 -2
2481 2 30.289439465987922 1.5962986033342137 4.414673400901599 0 1 1
2884 2 33.3220869800721 3.2196812049505925 1.7804060137183366 2 1 -1
1050 1 32.37429851031398 0.4046912145803797 0.6945237063853494 -1 7 -2
3954 2 33.643135274490845 2.1861941672126783 4.826167996561665 3 -1 -1
2031 1 34.91922019354409 0.06865243869610538 2.931350384979328 -1 1 -1
1592 1 37.14726176629291 2.1626765259752143 2.0945504111562054 -4 -1 -1
814 1 39.74224788070781 2.6357750001750127 2.4709224354929997 0 1 -2
3707 1 42.344358396990465 1.7672841321779178 2.1534804732199486 -2 1 1
1540 1 41.07955457255872 0.21027052980241018 4.513985920521628 1 -3 4
3983 2 42.13108078648545 4.4271513478546405 4.587722724962685 -1 2 1
1223 1 40.355448780773436 0.41152958026845915 0.7034752367276444 4 -1 0
1038 1 42.44926529472187 4.402271721336238 0.9967599750062172 -1 2 -1
3745 1 44.70277577612317 3.6211939213000925 2.6647236560783374 0 -3 -1
2198 1 47.47894504414806 1.6943108001516027 2.6078644563430253 -5 -1 -1
2190 1 44.70026441166272 0.2784668384092069 2.6436285272762596 -3 1 5
231 1 45.15918119823195 2.4015821801528765 0.18501116459729758 0 1 1
180 1 3.1256481916322 5.927714929230894 2.2066158974466483 -3 3 0
1142 1 0.58708376774253 6.178284637911222 1.3324714485487952 0 4 1
2614 1 2.5947733165573545 8.155128335335744 0.2919125246709599 0 -1 -1
3644 1 4.245987860072612 9.308123694321871 2.3076558776883616 4 1 6
1033 1 1.5216283749483732 8.478974115688187 3.377038863942271 0 1 -2
2608 1 5.771088225430802 7.17024339523249 1.1698706250880506 3 -3 -6
284 1 8.21600748734314 9.443543575514598 2.904113276472942 1 1 2
3756 1 8.309491872501138 5.898334069325643 2.60076784464121 0 -1 -1
2671 1 8.789454017742512 7.626582560355469 0.25291413733105644 -3 0 5
2140 1 6.648448949883588 7.768359683493882 4.1225740265712165 -3 1 6
3855 2 11.209500997221124 6.767682571594296 2.3095686509724427 -3 2 3
3750 1 14.002753858745546 8.41627406837812 3.4439258738666085 2 3 2
2932 2 15.635817506760972 6.991543529064822 1.7236161942570056 2 0 2
1471 2 18.647156114219186 6.799604234491406 1.0473703041423934 -1 0 1
3158 1 17.240183334795844 9.428650297751737 2.815651618132564 1 0 0
2253 1 20.72552890275925 8.155584014304551 3.5304364321919777 -3 3 2
1039 1 22.840238598410398 6.609667395776863 1.1943695169162638 -2 1 -6
1924 2 23.682446345707703 8.734889596005017 3.347667657588744 -2 0 -3
1803 1 26.822826699139338 6.714109209621935 3.035542186350947 -6 3 2
2836 2 25.389852302173306 7.680269822382255 0.4083944876948215 -2 -2 3
2616 1 28.584140676689916 9.0870353095749 2.1073462632839837 6 1 -6
3690 1 26.862476593525567 9.851057755949803 4.845469158800594 2 -1 -1
1017 1 28.295812756760693 6.2948484527217 0.5981986337805774 2 5 1
1521 1 24.80430475945077 5.372366609058755 4.035943246727495 -5 2 2
646 1 30.770112695766414 5.341182480767845 2.8445963471581193 -2 1 1
2698 1 32.59544459623309 6.292672605086292 1.0739342507075649 -2 1 -1
523 1 30.85105510828001 8.215980519704557 3.0531715962792574 -1 -5 -1
1434 2 34.372509079274394 5.2539632727362715 4.872711373170027 3 2 -2
1847 2 33.311009191793644 9.185973454622586 0.7097965934026271 -4 1 -1
1453 2 36.17136833377365 5.236255912065196 2.3472045286730947 -9 -1 4
1992 2 37.895511607098776 8.427619995632211 2.9221974825583015 0 3 3
3408 2 34.59736829407888 8.925385569075374 3.8727541259682323 2 1 1
3327 2 39.17081716658982 9.677298035657385 0.2969113288423142 2 -4 0
3555 1 40.955104677182256 7.901834510674823 3.140872356647294 -2 1 -3
3915 2 44.25152945763681 6.732211270395522 2.7856613777701376 -1 5 -2
1933 2 39.87231458326445 5.559827564582455 1.4734086658122443 3 1 4
1382 2 42.32887995458667 8.826127366614115 0.5432084022255655 0 1 -2
2176 1 49.257925298533024 5.505641239934196 3.907482901890585 -6 2 1
2969 2 47.39653791111252 8.256150916113027 1.9729196733129928 -2 0 0
1214 1 1.867821877362182 11.056292131097106 2.0955940441583016 5 -1 -4
657 1 4.07056280117655 12.525167269600653 3.178294613523488 1 -1 -2
595 1 4.450284857630676 11.705367786339481 0.2885964357252588 2 0 0
2175 1 1.574974461415375 12.357745479775408 0.16892290362711293 -4 4 1
1480 2 0.8227927998594562 13.84018668182966 3.2272454646280937 -1 2 0
7 1 6.733855700324571 9.913762529729786 0.5037746500737412 -3 -3 2
2345 2 6.520601582866161 13.31541678758578 1.855749001869395 -1 1 -4
2496 2 7.421011175393362 11.586461848240438 4.922231383578197 -2 -4 0
3418 2 9.125314157042315 11.341862648466465 0.16653113421288343 2 -1 4
1436 2 10.081122093021252 14.016971935373176 2.5148634849016074 -3 -2 -1
2467 2 13.21046579774734 13.671479235012278 0.3727226118280033 2 -1 10
3846 2 11.465595460714015 10.025980340957972 3.747938717482117 0 0 6
2742 1 14.381013744846003 11.523196939814063 2.813122321311798 0 1 -8
3964 2 16.537596994584604 11.795008510573052 0.48536929138121837 1 0 2
566 1 19.161672085183618 14.384253293524377 1.0314664330432701 -2 -2 -3
3967 2 17.88595199567377 12.844465266771968 4.099970649228144 -3 -6 0
3325 2 20.79192807929119 10.67429044954606 4.486307913615836 0 -2 1
258 1 21.655947560376468 14.263901499294269 4.010544057276 -4 3 1
3825 2 23.09241933962802 12.194159164809257 1.655346685755143 -5 1 6
1757 1 20.106879599640084 11.999801059563131 1.7506533729310991 2 1 -3
954 2 24.604865886034847 11.772373792835293 4.828697161073064 -4 -1 6
387 2 25.85808372028786 11.325489604592628 0.33056509930471417 0 -1 1
1776 1 27.52867824693137 12.19760267894731 3.0654299483882435 -1 3 1
3651 1 30.16497487915508 10.453975704204142 4.532215116945207 -1 0 -1
3177 1 29.91436979147504 13.710298880011237 3.109942717650383 -5 -7 3
2051 1 32.35374117733076 11.33768758680684 2.5191628680637117 -1 -3 -2
184 1 33.54144623672308 14.618603869157441 1.7515522558102563 -3 0 -2
2623 1 33.6911523665614 13.674744181515228 4.440679600155452 0 0 -1
3541 1 35.64826533732863 11.410529540040208 1.185454651323855 -1 -1 1
2210 1 38.92142761772432 12.175550530882912 3.117600658136175 2 -2 -1
3843 2 37.17279672954811 14.130648122702391 2.772076995741178 1 1 5
1664 1 41.12438714078623 10.929564499116575 3.7141269232125325 0 3 -4
511 1 41.24671804307561 13.93786764184774 2.819085124605099 0 0 2
2260 1 41.73124137238072 11.963568589362863 0.8746957628839908 2 2 0
3710 1 43.99197994412413 12.699327883261393 3.122156798839889 2 -1 5
706 1 44.19310141333994 10.092455879092151 3.134557902353857 -1 4 -2
2734 1 44.34725981293773 13.770174153293606 0.21474376122026534 1 -3 -5
219 1 44.643621921260404 11.10353366040847 0.8161924095850739 -1 -1 1
3430 2 47.13829080975467 12.66325706335294 2.5525712984388242 1 1 2
3878 2 48.547865112616634 10.630516222814974 4.882191128328941 0 1 1
3416 2 1.5250384075532406 17.912070810653375 4.682347492072241 3 1 0
2991 2 2.131576112550242 16.16478618202978 1.9593766631143414 4 -3 -7
2899 2 5.714931030290559 16.74274729479881 2.8430705428836682 -1 1 -5
1617 1 12.31751444134425 16.93077015263187 2.159556971251372 -1 -2 2
754 1 9.912771772863906 17.04202626380056 2.668823850398147 3 3 -1
1566 1 12.47133259108181 15.831209307951802 4.864230045463425 2 5 0
2752 1 11.948514282245684 18.587225528852795 4.922928083159963 -2 -2 7
2581 1 14.799795889207239 17.854050064101994 4.229283692623846 3 4 1
2479 2 15.430904061463618 14.967239747733545 2.5340165612779852 -1 1 2
1400 2 16.54478769510294 18.249848342205624 1.6545861202007566 0 5 0
2815 1 18.72323761093674 15.971221662497982 3.1833911228625196 3 -2 4
1711 1 20.364916346342795 17.74261334402804 1.8575998209724771 3 -1 4
663 1 22.862500510122427 16.71192194581682 2.657389591815543 -5 6 3
1602 1 21.713124940828376 14.951215665028794 0.4461155440767935 0 2 0
2256 1 22.66617923373289 19.1445874546922 2.6336852731342364 -3 2 0
103 1 25.158211673462723 14.955483050566032 2.3335995361758224 -1 -2 -1
1668 1 27.694164032424954 15.179031460599226 1.3694784431945415 0 4 0
2056 1 25.671877715096738 17.242410535428306 3.7363789156784217 -4 -2 3
3068 1 28.281691900277742 18.882563719188504 2.5862874310400783 -2 6 -3
648 1 27.529666284317468 15.076385416441385 4.793754243659846 2 -2 -1
2199 1 25.67311551241637 17.913397636044223 1.1748272085853677 4 4 -4
3209 1 30.01802950057457 16.275372104172284 2.4051809458371136 2 1 0
3714 1 31.514981421991415 15.822863841781366 4.388114206100018 -4 4 1
2887 2 32.13689012754462 18.323117443851142 1.8230098420055953 2 0 1
3932 2 35.770565389053736 17.556579957325194 2.061678033807779 1 2 -1
3389 2 39.489486452394885 16.897319447699623 2.7684413941485335 1 3 2
197 1 37.25616111848674 18.882596122919285 4.574364317743044 -4 2 -1
2576 1 43.060692715208816 15.698676139931667 3.5585874093451633 -1 -2 2
2049 1 43.92830986284289 16.36890920299992 0.5615353852205054 2 3 -1
89 1 44.08588243071777 18.714845806102975 3.6255014811040245 -1 -4 -5
157 1 41.94707598605414 18.396080311397853 1.5312483757014406 -5 -1 5
3067 1 47.04216760043156 15.23696974392792 1.2376399035072625 0 -5 1
2119 1 49.25760264079826 17.97230155772552 0.5710478082109735 -1 -2 -1
457 2 47.94412288470598 16.88278980444972 3.906740156399421 2 1 1
1604 1 46.54936971102251 19.130088658213246 2.1950577783076564 6 3 -1
3743 1 2.1718214741557893 19.82996753560631 1.6559673145711633 -1 -2 2
2892 2 3.587860004660421 21.024387707044138 4.7556452911884515 2 1 3
2970 2 2.0724848819433426 22.91223534764364 0.8700407506606582 -2 0 2
3871 2 1.1866520115690604 23.49573689926855 3.974407033513953 2 -1 4
3486 2 7.228699370530443 20.047554300080034 4.6125538618165445 2 0 0
2898 2 5.066315553858311 23.70217838697253 1.7441257872180518 -1 -1 2
2831 2 7.6063095844360635 22.0968274407632 0.06815282005467216 4 7 4
1916 2 8.795911796053389 23.801821708447118 4.226768995413403 -3 1 1
1001 1 5.355670011513418 20.113023941348057 1.4317940937721436 3 -2 -4
926 2 10.62685801289222 19.872013533084548 1.071246170211452 -2 0 -3
1370 2 12.792349596318738 23.660545466165907 3.824268332291664 3 -1 2
3879 2 14.06552859244478 20.21866990775125 1.445997337105795 1 2 5
2224 1 13.93478588819758 21.233649792541073 4.5458796655467495 -2 -1 1
3351 2 11.655735535443641 22.81072754604782 0.733013944332233 2 -7 -3
1220 1 18.71776711136912 20.094576286919725 3.2855828531102698 0 1 2
383 2 16.692572692405104 23.025406724483794 3.25711813521071 1 4 2
280 1 16.48543343755689 20.224497124564813 4.840033310890985 2 3 0
662 1 20.943224964527534 22.37451611401466 3.9749431884836093 1 -3 0
3173 1 24.0156414339302 21.70725804893815 3.696783814383124 -3 -1 -1
475 2 22.256547163114092 22.258075891320956 1.0894660621750256 -2 -3 1
1882 2 20.3796326750087 24.64391963088127 2.4458591383419597 -2 -2 1
3282 1 25.88578961751659 20.91772635979209 1.9912877916224674 -1 4 0
678 1 25.812999244351168 24.389891214759444 2.2022789553778064 3 5 0
1051 1 28.617867420186887 23.516090536805386 0.9459417972902344 -3 -3 3
2558 1 28.316872800951497 22.233630905251037 3.3953201329237706 -2 0 1
2689 1 27.048536022600075 20.09533585107823 4.715356482670961 1 4 0
3969 2 31.17920646940023 20.64155351197751 4.2783755849447695 -2 1 6
1263 1 33.902779781734104 24.33943843726925 3.1438580342727613 0 -2 -1
2035 1 31.81401099899663 23.644485931190378 1.03317781421319 2 -1 -2
622 1 30.335164022795166 21.255530404012642 0.7379643567697399 0 1 3
3974 2 33.88877282149006 21.054955582533562 2.6933441254227484 -3 -1 -2
2151 1 30.536584875809872 24.07011341066273 3.8025913414052126 0 -3 -2
1828 2 37.588878417978975 20.977109489601514 1.1801146203114017 -1 1 -5
3366 2 38.36972060709496 22.990267912046793 4.003664458182897 0 -3 -4
1042 1 41.160641403134804 22.932775832279848 2.897815594882332 -4 0 -1
2872 2 43.401039394822206 21.348546709354192 1.6350833927980628 -4 1 -1
3812 1 39.961117497721446 19.832202464751248 4.541389592238262 2 1 3
340 2 49.267891540213306 19.937403318145957 3.099526248644331 -1 1 -1
135 1 46.20646349267284 24.595086989183425 4.432125823894118 -6 1 1
2104 1 45.86416555877897 21.86447187138293 4.17515333744956 -1 -4 0
2207 1 48.41744277729863 22.551840939457403 1.6828330074987814 1 0 -2
2299 1 46.357811940262735 21.46375267015009 0.2556201003152509 2 -1 0
2171 1 2.826284312424664 26.526147726572727 2.432842795603037 -1 0 -2
451 2 0.7750991651140448 29.11992384530979 2.5820469187987483 5 1 4
2966 2 4.731641871041719 29.26870868298484 1.4449456471179372 -1 -2 -2
323 2 7.033268171280622 27.433347313794258 3.8053621934695734 3 -2 1
3895 2 7.5096071790983 26.248170197857917 0.1107261776510683 1 1 -4
2940 2 11.448820418608829 26.182537143759134 1.679684535371463 2 0 5
2925 2 10.041756020005455 28.94638143217971 3.4979279741065397 -1 1 1
240 1 11.397776584609677 29.214550318579835 0.06909234011749167 -1 -1 5
450 2 13.385701184203814 27.264945748533346 4.082417216198096 2 0 -2
2850 2 17.09924304753546 27.099733351248833 3.242852896744478 1 4 2
797 1 20.132627699515396 27.565572194768578 1.351850332634777 -2 -1 1
3765 1 22.559393171255387 26.41668396319675 1.809405304537579 1 1 2
3537 1 22.848372463438174 29.3080372343544 2.9283210579472243 3 1 1
1722 1 23.73312413689203 25.063195404892845 4.788830734543183 4 -2 -1
173 1 24.66089554929393 28.401764535427574 0.9854969419343735 -1 4 0
1229 1 20.93037507559384 27.88352212660386 4.4528439780951 0 -1 -6
273 1 24.955626968613704 27.169527272000717 4.101725671135774 -2 -1 0
1304 1 27.999029406449377 25.326196293484067 3.924095901930274 -1 3 1
1790 1 27.697165683042208 29.432222884384444 2.742431450132997 2 5 -3
2792 1 27.530392390846014 26.90808610852787 1.600563611771855 2 -3 5
249 1 30.317405636200675 27.06650256748457 3.3279483955307207 1 6 -4
2242 1 33.33597952673829 26.466717938923004 1.7745008200753623 -2 -5 3
2511 1 30.445112987617733 29.628364498695614 4.324600699675994 -2 3 1
3782 1 32.633309922883356 28.79819179977902 2.5913354101101573 2 0 3
598 1 29.962349838530436 29.36488070402901 0.9293800395727067 -2 1 -1
299 1 29.719502457008247 26.44929562229074 0.3784642719074142 -1 -3 1
3109 1 37.33873691004401 24.93352990033018 1.8640994167097025 0 -1 3
2127 1 36.816021204533335 28.107077666487722 2.9286973292288843 -3 -1 7
1414 2 35.93803110290115 25.37651714369895 4.422475716531366 1 3 2
515 1 34.84616370682345 29.42542011757618 1.0219586064476087 -1 -2 1
2710 1 40.23595315895048 25.224116705390838 2.818528020173171 -2 -1 0
1377 2 39.696712620936516 28.442115201582084 1.6802311852736787 -4 -2 -2
531 1 42.55688855884137 29.464244087887526 1.9141400703379934 -3 -1 2
1298 1 42.36510518372188 25.89229298511076 1.6403490888288508 -2 -1 -1
3268 1 40.758898988537574 27.51476535164152 4.562575884489084 2 1 -1
3221 1 43.921272317394 26.828951733811362 4.4323433277621245 -1 -5 -4
3379 2 45.818689341786296 24.878904203333832 1.250622344439988 -6 -2 3
256 1 48.87077789861747 25.343490086152947 3.322693748393757 -5 -2 -1
3119 1 47.80284855734061 27.268732496060377 0.9467032889240578 -1 1 -6
3299 1 44.906474746980926 28.219847036873677 1.4870922399811168 0 4 0
179 1 48.02462676744602 29.10882464598166 4.925875607840508 4 3 1
1603 1 2.3501421137678213 29.817455259372174 0.1357184522918794 -2 2 5
1834 2 1.0983572499377385 32.51240792688831 0.9226968164957117 1 2 4
3877 2 3.022574772361612 32.21644826486817 3.750409753740131 0 -2 2
3538 1 4.307534167182458 33.62555386802305 0.9207604992473937 -3 4 -2
1530 1 0.9674409561144107 34.13639647120868 4.787567245553502 0 -1 4
1852 2 4.029459858282626 29.738327590938407 4.844285827024489 0 0 5
434 2 6.506876364989702 31.824380933374304 1.45760364145636 3 1 2
1080 1 8.066321156168653 34.012468150127305 0.576987783203886 -4 -2 5
3236 1 8.677739475281117 29.95266903735278 0.328861996776691 5 1 -1
332 2 14.061988716906981 30.09166037911585 0.8654227510262178 3 2 -1
1869 2 10.196744031860849 32.03299369926451 1.1563556962216464 4 -1 2
1745 1 13.135727490567485 32.59800139122702 4.183628419474119 0 0 -2
1357 2 13.655470943151354 33.76016634571104 1.1937695929598298 -1 -5 -1
3885 2 9.99533270701919 32.120620111055615 4.368813184850135 3 -4 2
957 2 18.80537511124196 30.54649011550755 3.716602342503663 -4 0 0
81 1 18.374840317719173 29.972187402591583 0.5120521516110403 5 2 0
3480 2 19.156409229996747 33.36279355393383 1.0326737283262688 3 1 1
3442 2 15.741420690833115 30.6730984594298 4.333920944532183 -3 0 0
545 1 17.451540996645207 33.21913903547169 4.7645892651101525 -1 0 2
320 1 21.43065013218706 31.16424014637546 0.5227256868779789 -1 5 2
472 2 23.279067563275547 34.33680487873142 1.9008671910512487 3 3 0
1154 1 25.35700447016036 30.907539230222497 2.5870963166055083 -2 -5 -1
3563 1 27.884664796880216 33.08050389163162 4.214915922098004 -4 0 -6
1090 1 27.778515133649748 31.65021872685435 1.5106964737575919 -4 1 2
3685 1 30.26614865741739 32.698061616718775 2.315600559603811 3 1 3
2953 2 32.808014483257054 33.70170282168426 2.787787223845004 -4 1 -2
3267 1 33.05819851531347 31.512555820626154 1.39939443409829 7 2 2
774 1 39.00489083620289 34.5657148597044 1.9685161190011458 -1 1 4
2987 2 36.400845677497315 31.968367803680877 3.400323671318527 1 3 -3
3098 1 37.29099944310105 31.134380130278835 0.6906387273764055 -1 3 0
364 2 35.92017314018855 34.125159586258896 0.5946647297209727 1 -2 4
3709 1 43.51200174474005 32.22751420148328 2.1803915456332916 2 -3 0
2237 1 40.24881807842906 31.578032543203093 1.7240120917104944 0 -4 -3
2489 2 41.4009973700302 31.182504597660383 4.511766126459033 0 0 -2
3253 1 42.491324000693965 34.565275480055476 1.1995793514518265 0 5 6
1133 1 48.16441818835384 31.191099490514112 2.726869596433954 4 7 4
651 1 46.83556376855915 34.10355241969564 1.4304667324430087 0 -3 2
3903 2 47.13982403957048 33.563360434039005 4.727057812972359 -2 -3 0
3306 1 44.86504237194781 30.140521980117807 3.2357444974153995 -2 2 -4
3189 1 45.75146678307048 31.101554464214313 0.7602208825602885 -4 4 2
3032 1 3.258376613699484 35.61871433506417 3.3470031668734177 -2 3 6
21 1 0.017293367420994424 35.61759389468281 2.117681056609376 3 -2 0
2406 2 1.8994407615953166 38.5746664333273 2.7352686594553597 1 1 -2
1347 2 9.637561638153766 35.39602998958189 2.7295216555407977 0 0 2
33 1 6.285540895296976 34.82198596901566 3.6622336643469984 0 -5 -3
1594 1 8.495885479686455 39.4503147219296 3.1009705184977583 4 2 1
2014 1 5.2859277600341406 38.08827560805335 4.685868534008461 -6 2 1
3923 2 5.6900871042547605 37.37537068551619 1.299100924198949 1 3 3
3758 1 12.57101671968485 35.79565588350673 3.573952635679192 -1 -4 2
417 2 11.137286869174563 39.154361220915284 1.989100903952532 -5 3 -3
3997 2 14.73581253576976 37.76668832369541 1.530589461904979 0 -3 1
3278 1 16.400604003308857 35.36829619860877 1.7416203532034797 0 -3 4
637 1 18.12356944152996 37.404410069667776 2.0981754706234947 3 1 -1
1131 1 20.57313799640035 37.26969707323135 0.802883431761685 -1 0 2
2853 2 20.250836985048963 35.63762902576164 3.7200702831180266 1 -3 5
1855 2 22.434129003697173 39.2103504681889 2.845721952013319 2 -1 5
2313 1 29.28016348737187 35.208698051630876 3.74735087068376 -4 4 3
1580 1 26.40134389228013 34.92595617048323 2.3485641368239505 5 -2 0
3382 2 28.01181429234715 37.708986272048826 3.1041057607391176 -6 -3 -6
2773 1 28.91277333119487 35.445539078929166 0.6394226467765369 2 -4 4
3458 2 24.882526478006426 38.42539345275092 4.931697865556954 3 -4 1
3593 1 31.31672005918333 34.833610168182226 0.19230147968253167 3 0 0
3554 1 32.837540791859524 37.02176393751276 2.5154445096246945 1 -3 3
1006 1 34.356066621366644 39.13546237086018 1.7006596373076197 1 0 2
112 1 31.051028398302126 38.973888947404674 1.3342806342285898 2 -3 0
2048 1 30.937776029595963 38.816408888066285 4.7848655689333475 2 2 -1
400 2 36.15299421015739 35.87690042360274 3.741184645563963 -1 3 4
3289 1 36.59465616640742 37.216795256461836 0.6425973438841006 5 -1 -1
2745 1 38.25538619597466 38.066383342807526 2.6594921900583706 -4 -5 3
1508 1 36.45670044418345 39.18183967200927 4.422348872274763 3 -1 0
2371 2 42.87203347883086 34.98681475691679 4.155980509553711 1 2 -2
3191 1 41.08504224281681 36.90582461357423 0.28617458626305003 -1 4 1
1996 2 42.70821666975092 38.810911946099125 1.6993484688290363 1 0 4
2812 1 45.34723446219495 36.19125120408422 2.824701399356644 0 4 0
2879 2 48.656916178992034 37.67040960002843 4.6257043826612385 -1 -1 1
2714 1 47.786717449280076 37.74319134926916 1.4110665847605504 -2 -1 -4
2842 2 45.830704937182574 39.1729799376593 4.138959888603109 0 -1 1
3604 1 4.74913883465634 40.0107905700247 1.7847643985811859 -3 -1 8
3407 2 3.3239653511631513 43.3467259247825 2.3059915854988158 0 1 0
1379 2 3.7022690095957165 41.259211287492946 4.774823702542237 -3 1 4
3508 1 1.457316779830368 43.668971588775825 4.604402791886148 1 -1 -1
1529 1 1.535380237936402 40.089417688175295 0.16823978568534986 2 0 3
3605 1 6.578691717616189 41.81715464772752 0.4759819501643692 1 5 2
2319 1 6.81419704129304 43.37478506665113 3.603698973971357 -2 0 0
3150 1 8.93922938413474 41.2770346541417 1.2661727281784632 2 0 -4
3084 1 10.36219426480592 42.164310656779044 3.8505685532884937 -3 5 -2
1639 1 11.934805952709555 43.170764557692756 1.3280408712552805 -3 -3 -2
2375 2 13.707181838723837 40.79061063187634 3.888182207390301 -2 2 1
902 2 16.341439793140594 39.83650719799921 1.1828902047406777 -3 0 -3
3645 1 15.068948959627804 42.480663895720326 0.5035413619530386 2 -4 1
2975 2 17.992362863122942 43.031418230541185 2.526349990992377 2 0 3
3334 2 17.137726305208297 39.99809645729413 4.606634217039309 -3 -2 2
341 2 19.653214214346068 40.461589981771745 0.713698819391148 -2 -1 2
2484 2 22.60348115377975 42.481564585977985 1.8001690313709933 3 0 1
953 2 19.77138849847605 44.164998998941826 0.07640206594763312 3 0 4
1200 1 25.816989407259737 39.91149627974421 1.9272633072414258 -2 1 0
390 2 28.14443670720204 41.27335981379854 4.314973640342809 0 -5 1
986 2 26.12437218272834 43.164987610766524 3.321425469537394 2 0 0
3127 1 25.152449426980134 42.405338532531765 0.29158755945626513 0 -1 0
2367 2 28.74988733679375 41.60298648497539 1.3143324816239794 -5 -2 1
3824 2 31.917995195967986 41.527235380486346 3.9554460848151787 0 -2 -2
1915 2 34.50200273529169 44.0122000242423 0.9682202621190227 6 0 -2
134 1 37.281850854452934 40.44318674394856 0.8620965036959392 5 -1 1
2517 1 35.97115592396249 42.55146532731502 3.3645083595663547 -1 1 2
766 1 38.321949664166944 43.72580313818879 1.1843589321946442 -3 1 3
38 1 38.07596165526971 40.94986775667082 3.8764865794349963 0 2 -1
2216 1 39.976369502494876 40.26179559690522 1.434503761981359 -1 2 4
2912 2 42.41446922914814 42.01992597666035 1.5082844975606162 1 -1 -4
2658 1 40.74984710542426 43.73418162384895 3.588632757674508 -4 -2 4
1188 1 40.73209406021561 43.96921027312709 0.15690974468149418 -1 -3 1
3833 2 42.25231023799903 40.58212030593379 4.896906336724474 -3 2 1
408 2 45.72743681802148 39.766231211834096 0.15115368968077134 -2 -5 0
331 2 49.13135368822171 40.90921825911095 2.5958755540898713 -3 -6 -7
2513 1 47.08841280444752 44.15941622935558 3.850068592998091 -1 -4 2
2315 1 44.70516653568143 43.24014572587609 4.308309978582152 0 0 1
1110 1 2.8869156563523006 47.46332474195545 2.646718222376361 -2 3 -2
2779 1 0.21905535388754646 46.035731088162684 1.6703368471461482 1 -3 1
2924 2 4.760628292157306 48.9471644650275 4.934360160593815 3 4 -1
2816 1 3.6501206664851704 45.43930882415381 4.403190058465081 1 3 3
421 2 6.397569100449716 44.96244179289887 0.9805809712275106 1 1 -2
1732 1 9.382334924584162 44.700849951652984 2.497066018105199 0 -2 1
366 2 7.454737435365663 47.16166310260485 4.284982428852449 -3 0 -1
2457 2 14.281799780527969 48.818824175222076 1.3600463434215775 0 4 0
914 2 10.302077790717146 48.34359490733157 2.22535400633249 -2 1 1
832 2 12.705728696757248 45.962109489306435 1.751686168068358 -3 -3 1
1071 1 15.479499396296712 45.284382444193 4.620231107603154 -3 -4 -3
2965 2 17.86115861156496 47.23958165396456 3.779359126174901 -2 -1 -1
1499 2 16.204003518609564 45.340084585939536 0.7282207043771751 0 4 0
3955 2 19.99148921355703 47.55458666546752 0.37918612602532303 2 -3 1
368 2 21.756238132018996 45.97076037167556 2.988879866875204 -3 0 0
1307 1 22.887680097387687 49.26795731057784 3.281262005816428 -4 0 -1
1026 1 24.798311121804645 46.30766556053858 3.529408532709475 -1 1 5
792 1 26.32096010725876 48.44952791981742 4.710717762315207 0 -2 1
3274 1 25.433278460709992 48.58926132716193 1.4061187680357834 2 0 2
3030 1 27.482647368245534 46.34286140005236 2.056894378832814 0 0 1
970 2 30.173700691245735 48.343677133942826 1.6701234188991068 -2 2 0
3338 2 32.44835389281364 48.26100955089743 4.186429161585756 4 1 1
1562 1 33.369752251707474 45.15122711567089 4.364631469587787 -3 -1 0
156 1 31.116948986236423 45.54570631411464 2.309907419220832 -3 -1 3
3640 1 34.28893090518443 46.95067693766118 1.3276910531853399 3 -2 -3
1677 1 37.94886235535434 48.7957334596612 3.993444435797641 -1 1 3
253 1 36.87941558608337 49.35736422010349 1.0114308206360967 0 5 2
1675 1 37.309793974260735 46.662571288642376 1.0443966782387224 -3 0 -4
30 1 36.71647736986115 45.74887841767324 3.713363535818915 -3 6 0
3727 1 40.310952068498786 46.67929494094044 2.134425645114766 3 3 0
2192 1 43.156316483147826 47.0107419857313 3.84361215283592 -7 -3 1
2166 1 43.02672572254896 45.5200618552238 1.6299117072954858 3 -8 1
1787 1 42.94199823641407 48.4937432797669 0.8269080236955864 -3 -3 -2
3660 1 47.91993054901396 48.210342977714745 2.357605843487932 -1 -1 -1
1252 1 48.885066816644624 46.42812845931863 4.739769096177128 3 -2 3
2297 1 45.52552396292001 46.63079930097486 1.8008034048549986 3 0 5
205 1 46.41174578038474 48.977552646343625 0.5456667164538884 -4 2 0
34 1 2.1668712151191185 3.086625923556385 7.069504466422105 -1 -1 -3
1290 1 2.883897687334074 2.5959093767398236 9.61147475776844 4 0 -3
3829 2 5.242372727874917 4.671808441724695 9.7029567451873 3 3 -2
3873 2 7.384632890745247 0.5494065514358631 7.8769218222963495 2 2 2
853 2 10.240614118384887 3.538924829938911 7.371514609296076 -6 -3 0
1812 1 13.321885441397727 2.5862009288608108 5.873704718784745 0 -2 1
2621 1 14.512050669850728 3.8777662730308924 8.510930617017086 -4 4 -4
575 1 14.460966550205129 0.8593022079510829 8.62124225645677 0 0 1
208 1 17.06157808442925 3.20310761563521 6.140912590275591 0 1 -1
2565 1 17.022015433360938 2.4918402457728286 9.302424284304148 -1 -3 -3
338 2 19.300563333276404 1.2387573396382205 6.86661822454635 1 1 1
654 1 22.000484298814655 3.5723450738603617 7.250257258695028 0 0 -8
1615 1 24.384133845044637 3.4377729614695434 9.023932454062052 1 4 -2
2490 2 24.723736485174523 2.006889413250276 6.152823077810796 -2 1 1
2250 1 27.63450143997683 4.331372452590634 7.198310081301167 0 1 -2
2902 2 27.7989129767243 1.3311944054196778 6.882355760984793 0 2 1
2579 1 30.273697798112543 3.107280205458386 9.360120787989434 -3 -3 0
1428 2 31.162835829150975 0.35196314161900993 8.019501728956785 2 -2 0
3469 2 30.25918598453431 4.910243764292447 6.413831623535546 3 1 6
2972 2 33.447616910750895 2.8371602010311836 8.868979880736964 -1 -5 -1
1485 2 38.94984588998466 4.847435731886951 5.220657268367579 4 1 1
1648 1 36.129855037111334 0.9350165638443864 7.760056426606718 -7 -2 3
3340 2 37.0566402785882 2.2144425532112226 5.3016769870665525 1 -1 4
1822 2 37.719567487072275 3.9413219241924597 8.369322451560398 -1 0 -3
3534 1 43.43107656515091 1.6211925975043788 5.537807545881764 -4 -2 2
703 1 42.928724279037496 0.8670765410583833 8.897790837595561 0 -2 -3
799 1 40.22462493238433 1.7675847750071578 7.048235306226716 -2 0 -3
2279 1 43.23744494522859 3.092687380022744 7.657786956053932 1 -6 -3
48 1 49.28562004394497 2.6250733921870766 5.348941412916325 -1 0 0
98 1 45.57454309945095 0.690244711390653 7.861141859020663 -3 5 1
3858 2 46.31044517427263 3.1404822813863373 6.04661680780482 3 -4 2
1204 1 49.21443768712931 2.9328635597653565 8.57357442052713 -2 1 -2
3217 1 46.829751226127534 4.505385511898466 8.352242465324247 -5 -2 -2
1746 1 2.162075692569906 6.327991347375826 5.272261787297244 1 -1 0
930 2 4.180531185352102 6.306851173081919 7.324116631210983 2 -2 -1