data.lmp (written by ASE) 

1002 	 atoms 
2  atom types
0.0      28.422298224662292  xlo xhi
0.0      28.422298224662292  ylo yhi
0.0      28.422298224662292  zlo zhi


Atoms 

     1   1      13.759600000000001      23.104199999999999      17.551600000000001
     2   1      14.091799999999999                 12.5297      17.765899999999998
     3   1      12.563800000000001                 27.2636                 23.7547
     4   1      9.3502500000000008      24.975100000000001                  13.939
     5   1                 14.4146      2.2276699999999998      28.412199999999999
     6   1     0.29830699999999999      2.8835500000000001      21.744499999999999
     7   1      25.548400000000001      23.764900000000001     0.72242899999999999
     8   1      22.471800000000002      16.615600000000001                 19.2166
     9   1      3.3507799999999999      17.018599999999999      5.1423500000000004
    10   1      27.440100000000001      12.891400000000001      8.3492300000000004
    11   1      5.7234999999999996      19.241900000000001                 12.0496
    12   1                 13.5562      5.7287800000000004                 19.4727
    13   1      13.664199999999999      16.145600000000002      27.731200000000001
    14   1      20.222999999999999      12.966799999999999      12.709899999999999
    15   1                 17.8659                 2.05924      19.468499999999999
    16   1      18.018599999999999      5.0981500000000004      4.0973499999999996
    17   1      4.2487599999999999      7.0188899999999999                 17.9116
    18   1      10.313599999999999      26.597799999999999      9.8966100000000008
    19   1      5.4565799999999998      3.4912999999999998                 17.9922
    20   1                 7.70749      15.185600000000001      3.3191099999999998
    21   1      5.9978699999999998      2.2215600000000002      6.5434599999999996
    22   1                 25.8964     0.62004599999999999      27.260400000000001
    23   1      26.930499999999999      1.6061700000000001                 13.1312
    24   1                 1.41066      18.285799999999998      19.185700000000001
    25   1      1.9808600000000001                 9.85487      4.9939400000000003
    26   1                 11.0251                 5.50943      5.3792999999999997
    27   1      12.088699999999999                 3.81751                 24.0625
    28   1      7.9182199999999998      8.0253300000000003                 12.8851
    29   1      23.552199999999999      16.717700000000001      4.8584100000000001
    30   1                 11.3193                 15.7164      4.4923299999999999
    31   1      20.765000000000001      6.4766300000000001      4.7544500000000003
    32   1                 13.9124      28.214200000000002      27.299600000000002
    33   1      2.2006000000000001                 15.2577      8.1735500000000005
    34   1      21.055800000000001      28.208500000000001      6.0611600000000001
    35   1      14.452400000000001      17.928699999999999      18.100000000000001
    36   1      7.9776899999999999                 2.52603      8.7933000000000003
    37   1      26.201799999999999      18.281700000000001      5.9177999999999997
    38   1      25.886600000000001      9.9520599999999995                 23.9575
    39   1                 18.6646      22.567699999999999      20.005600000000001
    40   1      19.455400000000001                 16.6645      24.373100000000001
    41   1                 20.0245      10.009600000000001      23.377600000000001
    42   1     0.87272499999999997      5.9007500000000004                 16.1798
    43   1                 11.0632      18.735499999999998                  13.346
    44   1     0.27083299999999999                 11.3934                 15.6233
    45   1      16.183499999999999                  12.945      27.124400000000001
    46   1                 10.4292      17.838699999999999      21.611499999999999
    47   1                 21.8995      16.180900000000001                 1.14012
    48   1      25.734100000000002      22.533899999999999      22.186499999999999
    49   1                 2.71061      23.259599999999999                 1.76746
    50   1      21.479099999999999      3.8549600000000002      26.874199999999998
    51   1      20.012899999999998                 16.2072      15.739800000000001
    52   1      3.5649600000000001      16.446000000000002      15.418100000000001
    53   1      20.650700000000001      1.1135699999999999      8.6439500000000002
    54   1      20.864699999999999      3.6725099999999999                 16.9907
    55   1     0.46546999999999999      6.1063999999999998                0.608016
    56   1      22.875599999999999      10.954499999999999                 11.1692
    57   1                 27.9406      16.957899999999999      2.8011300000000001
    58   1                 3.64188                 11.8315      18.430299999999999
    59   1      5.2373200000000004      26.891200000000001                 14.7401
    60   1                 12.9156      16.284800000000001                 22.2684
    61   1                  13.427      10.466699999999999      5.2504200000000001
    62   1      6.1658099999999996      26.630400000000002      20.267700000000001
    63   1                 14.8598      5.9132999999999996      9.1171500000000005
    64   1     0.40268999999999999                 15.0649      5.7736400000000003
    65   1      18.343800000000002                 13.7615                 7.41899
    66   1                  2.8912      4.1346499999999997                 16.8735
    67   1      10.530799999999999      17.296800000000001    0.064188400000000007
    68   1      25.704999999999998      9.7844099999999994      18.872299999999999
    69   1                 8.14663      5.1463200000000002                 18.6279
    70   1                 21.1112                 14.0715      26.413399999999999
    71   1      6.8348199999999997      23.543700000000001                 9.86693
    72   1      26.340299999999999      22.023599999999998      2.7107800000000002
    73   1      5.4408700000000003      16.383199999999999     0.69213999999999998
    74   1      4.9217500000000003                  15.935                 10.0227
    75   1      9.2205399999999997      8.9996799999999997      16.403500000000001
    76   1      19.964200000000002                 26.8355                 14.0359
    77   1                 13.4269      7.7235399999999998      6.1507899999999998
    78   1      12.007099999999999      8.9922900000000006      23.773099999999999
    79   1      22.153500000000001      17.417100000000001      25.795200000000001
    80   1      6.1755699999999996                 17.6753                 14.6533
    81   1                 25.7089      14.258100000000001      10.919499999999999
    82   1                 5.45289                 27.3217      28.295999999999999
    83   1                 21.8413      21.290900000000001                 7.75657
    84   1                 16.9694      2.0354199999999998      14.027100000000001
    85   1      27.439900000000002                 19.6328                 10.7767
    86   1      26.576000000000001                 1.90896      1.4568099999999999
    87   1      24.139800000000001      23.760200000000001                 14.0563
    88   1      27.638400000000001      8.6030999999999995      21.403700000000001
    89   1                 15.7498                 1.66198      11.045500000000001
    90   1      17.016400000000001                 16.4772                 8.81386
    91   1      26.861999999999998      26.528300000000002                0.188638
    92   1                 26.9376      20.149699999999999      7.6431500000000003
    93   1      6.1226599999999998      1.5198700000000001                 19.9053
    94   1                 19.1646      16.529599999999999      2.3794200000000001
    95   1      8.3260199999999998      10.386100000000001      19.065000000000001
    96   1                 28.3139     0.33823199999999998      10.071999999999999
    97   1                 6.53301      8.6438400000000009      21.974699999999999
    98   1      19.976700000000001                 11.2456      9.8176000000000005
    99   1      6.2540699999999996      21.908799999999999      27.282900000000001
   100   1      18.385000000000002      20.094999999999999      18.337499999999999
   101   1                   11.32      1.3424499999999999                 23.0886
   102   1                 16.4742                 24.8032                 19.3949
   103   1                 1.79356                 13.7675                 16.9468
   104   1      14.756399999999999                 24.2347                 7.96448
   105   1      7.1474200000000003      9.0458800000000004                 1.65625
   106   1                 9.44468      24.090199999999999      11.473100000000001
   107   1                 12.3873      24.379799999999999                 14.6844
   108   1      19.238700000000001      16.792300000000001      7.2006800000000002
   109   1                 21.9893      19.878799999999998      5.7079599999999999
   110   1      8.7697699999999994      23.274899999999999      1.2087000000000001
   111   1                 13.3591      1.8920999999999999      17.206299999999999
   112   1      25.235900000000001      27.238700000000001      22.435099999999998
   113   1      7.6377699999999997      16.345199999999998      12.725199999999999
   114   1      20.655999999999999      2.4731000000000001                 1.45879
   115   1                 16.6829                 10.4152      4.8974700000000002
   116   1                 2.81568      3.7934100000000002      23.575399999999998
   117   1                 13.0283      8.8619500000000002      11.310600000000001
   118   1      15.429600000000001      3.0253899999999998      3.5338099999999999
   119   1                 14.1906      1.0886800000000001      8.8109099999999998
   120   1                 11.0398                 8.86083      5.4727399999999999
   121   1                 22.9496      2.9029600000000002      9.4926399999999997
   122   1      5.7179099999999998                 14.2819      13.372999999999999
   123   1                0.539794      4.4729599999999996      24.329000000000001
   124   1      6.7080799999999998                 8.19496      18.028099999999998
   125   1                  11.879      17.642499999999998                  15.353
   126   1      8.0020900000000008      14.863200000000001      10.517300000000001
   127   1                 11.5084      15.075100000000001      16.507000000000001
   128   1      24.267499999999998      1.0805800000000001      4.4252099999999999
   129   1      7.3113799999999998      13.404500000000001      26.253599999999999
   130   1      27.931799999999999      23.910499999999999     0.48124899999999998
   131   1      4.8767399999999999      24.853999999999999      4.5532399999999997
   132   1      4.9845300000000003      4.2815899999999996      4.9070499999999999
   133   1      22.751100000000001      8.1666100000000004                 12.8583
   134   1                 10.7399                 20.5458      3.4627599999999998
   135   1      19.602900000000002      8.5765499999999992                 12.6511
   136   1      25.043299999999999      17.412600000000001      27.511399999999998
   137   1      8.9479100000000003      1.6384000000000001                 20.0351
   138   1      24.966799999999999      15.417999999999999                 15.1998
   139   1      10.398199999999999                 14.8987                 21.5029
   140   1      10.908899999999999                 21.5501      26.755800000000001
   141   1      26.683700000000002      9.5292200000000005      13.352499999999999
   142   1      3.6212399999999998                 11.0505                  25.625
   143   1      18.791499999999999      16.864100000000001      21.214600000000001
   144   1                 4.29223      6.0174200000000004                 23.3904
   145   1                 23.3003      14.851699999999999                 13.1149
   146   1     0.57846699999999995      20.770099999999999      26.476800000000001
   147   1      3.1215799999999998      9.5172600000000003      27.877800000000001
   148   1      7.1919199999999996                 21.0656      8.0215300000000003
   149   1      5.8906099999999997      9.6122999999999994      10.866899999999999
   150   1                 14.5807                 18.1798      25.787800000000001
   151   1      2.9797899999999999      15.829000000000001      18.527000000000001
   152   1                 21.6402      21.895199999999999                 10.3468
   153   1      11.570399999999999                 20.1128                 7.42014
   154   1      16.239000000000001                 14.9373      18.927900000000001
   155   1      2.6694399999999998                 27.4985      27.458400000000001
   156   1                 2.48855      2.0046599999999999      7.4562200000000001
   157   1      8.5103899999999992      24.766200000000001                 7.83188
   158   1      2.5588299999999999      27.926100000000002      3.5642100000000001
   159   1                 22.2712      6.6888899999999998      23.158200000000001
   160   1      5.9289300000000003      27.053699999999999                 3.30586
   161   1     0.68995799999999996      27.074300000000001      15.652200000000001
   162   1      25.974900000000002      17.524100000000001      9.9131199999999993
   163   1      6.1958599999999997      1.5761499999999999                 10.9322
   164   1      4.1652199999999997                 16.7517      12.755800000000001
   165   1      5.4381199999999996      7.1343399999999999      9.9118999999999993
   166   1      11.068899999999999      11.441000000000001      9.4273100000000003
   167   1     0.34293400000000002      3.9558900000000001      7.1323400000000001
   168   1                 13.1334                 14.1876      19.672899999999998
   169   1      19.454499999999999      19.499500000000001      23.383500000000002
   170   1     0.80691100000000004      24.145099999999999      25.548999999999999
   171   1                 18.2349      21.613499999999998      25.063500000000001
   172   1     0.17696700000000001      25.065899999999999                 10.6198
   173   1      3.1257299999999999      13.811500000000001      14.345000000000001
   174   1                 7.17814      17.392900000000001      17.714099999999998
   175   1                 13.7224                 20.3277      5.5996199999999998
   176   1                 17.5365                 11.7492      22.550699999999999
   177   1                  16.866      21.533000000000001      14.029400000000001
   178   1     0.36810500000000002      8.6324699999999996                  15.163
   179   1                 7.53078                 14.0572      19.119199999999999
   180   1      23.506599999999999                  26.544                 13.4194
   181   1      7.9140800000000002      3.1611400000000001                 13.3673
   182   1      24.110399999999998      10.731999999999999      6.7363999999999997
   183   1     0.94826200000000005      4.8935599999999999      9.8517100000000006
   184   1                 15.0595                 28.2209                 16.2364
   185   1      17.520800000000001      9.3098100000000006      20.798200000000001
   186   1                 23.3109      23.488499999999998      22.524899999999999
   187   1      17.470099999999999                 10.6524      11.636900000000001
   188   1      21.236499999999999      24.244599999999998                 13.9178
   189   1                 13.8322      16.682600000000001      1.9256899999999999
   190   1                 14.9381      9.8576599999999992      22.347999999999999
   191   1      4.3921799999999998      25.423500000000001      9.6516400000000004
   192   1      17.248999999999999      25.184799999999999      24.142700000000001
   193   1      3.9445700000000001      14.028499999999999                 27.2517
   194   1                 22.7821      2.9801500000000001      6.3678499999999998
   195   1                 10.9902      2.0339999999999998                 5.48665
   196   1      4.0788599999999997                 17.5595      2.2103700000000002
   197   1      16.575500000000002      5.4782799999999998      26.956600000000002
   198   1                 27.2394      6.0575400000000004      10.726900000000001
   199   1                 10.5389                 22.1995                 18.0838
   200   1      5.3725699999999996      8.9561499999999992      24.347799999999999
   201   1      17.792000000000002                  14.698                  25.445
   202   1      24.834900000000001      6.1432200000000003      23.094999999999999
   203   1      21.466999999999999     0.93703099999999995      19.848099999999999
   204   1      22.515699999999999      15.164899999999999      24.153700000000001
   205   1                 12.1326      3.7661699999999998                0.103991
   206   1                 27.5822      15.304500000000001      27.157900000000001
   207   1      16.357500000000002      2.1093000000000002      6.1176000000000004
   208   1      9.7938700000000001      9.4401700000000002                 11.3254
   209   1      17.065100000000001      23.380500000000001      22.159500000000001
   210   1      9.4893800000000006      20.124300000000002      19.706499999999998
   211   1                 10.1852      12.866199999999999      17.529199999999999
   212   1      6.8078000000000003                 25.0501                 1.92581
   213   1      8.8905700000000003      7.3875599999999997      7.3080800000000004
   214   1                 5.13666      27.432700000000001      25.469899999999999
   215   1      20.534600000000001      15.963200000000001      12.369300000000001
   216   1      20.234999999999999      8.8331400000000002      20.278700000000001
   217   1      10.935499999999999      22.337499999999999      9.2986199999999997
   218   1      17.862200000000001      24.718299999999999                 3.30261
   219   1      28.157599999999999      1.6353599999999999      7.6712300000000004
   220   1      3.5916899999999998      5.4234400000000003                 14.4773
   221   1      12.284000000000001      25.182200000000002      21.618099999999998
   222   1      11.079700000000001                 11.6546      5.8103999999999996
   223   1      14.275399999999999      24.749300000000002      4.2237299999999998
   224   1      22.927700000000002      22.552499999999998      5.7774999999999999
   225   1      27.698899999999998      11.377800000000001                 1.25145
   226   1      5.9825200000000001      13.838200000000001      8.5319800000000008
   227   1      22.043600000000001      19.350300000000001      9.5587400000000002
   228   1      26.133600000000001      14.483000000000001      24.977499999999999
   229   1      26.097799999999999      4.4909699999999999      25.922999999999998
   230   1                 1.06854      11.210900000000001                 10.1637
   231   1                 12.9132                 27.1311                 2.94272
   232   1                 15.5854      21.942499999999999      1.9262900000000001
   233   1      23.889900000000001                 13.6586      2.5206200000000001
   234   1                 5.03139      13.855399999999999                 20.6951
   235   1      8.5390700000000006      20.095199999999998                 14.1221
   236   1      5.1767300000000001      20.047899999999998                  24.302
   237   1                 16.7562                 4.35168      24.441700000000001
   238   1      5.6589400000000003                 11.8241      3.5255399999999999
   239   1                 26.2638      27.082899999999999                 14.7818
   240   1      11.928699999999999      6.9867400000000002      3.2851499999999998
   241   1                 1.25478      12.383699999999999      6.2122900000000003
   242   1      26.634499999999999                 10.6797                 16.9253
   243   1      1.4596499999999999      27.748899999999999      12.421200000000001
   244   1                 27.8751      4.4236599999999999      3.0047899999999998
   245   1      20.395700000000001      7.9931900000000002                 7.65984
   246   1                 18.7027      10.628399999999999      6.6193999999999997
   247   1      23.989699999999999                0.608935      1.4926600000000001
   248   1      19.863199999999999      6.2361500000000003      21.392399999999999
   249   1      16.961200000000002      16.631900000000002      11.579599999999999
   250   1  -0.0012351199999999999      16.537299999999998      16.984100000000002
   251   1                 5.60792                 12.7418                 11.4054
   252   1      14.808199999999999                 2.77644      23.341100000000001
   253   1      1.4032899999999999      24.976099999999999      8.4245999999999999
   254   1                0.919346      17.701699999999999    0.086287699999999995
   255   1      5.3131599999999999      28.224499999999999      8.9253800000000005
   256   1                 16.5213      8.1729599999999998      1.8726400000000001
   257   1                 17.7212                 14.2294      21.779299999999999
   258   1      21.181899999999999      6.9335300000000002      10.489699999999999
   259   1      10.753399999999999      15.085599999999999      9.6132799999999996
   260   1      8.7435100000000006      3.4340799999999998                 16.1221
   261   1      9.6202699999999997      21.017700000000001      24.121300000000002
   262   1                 10.1294      6.1583500000000004                 24.4329
   263   1                 15.7841                 20.3323                 19.8703
   264   1      13.272600000000001      26.203499999999998     0.66920400000000002
   265   1      24.324100000000001     0.34899799999999997                 19.7986
   266   1                 27.7196      2.5058099999999999      5.3245199999999997
   267   1                 23.5824      4.1193799999999996                 16.0197
   268   1      5.0758099999999997      9.1264099999999999      3.8790399999999998
   269   1      8.8130699999999997     0.67679800000000001      12.244899999999999
   270   1      18.444299999999998                 11.8385      2.5836600000000001
   271   1     0.16231400000000001      2.9999400000000001                 26.8795
   272   1                 25.9483      4.8658900000000003                  20.041
   273   1      19.744399999999999      4.2670700000000004      10.008100000000001
   274   1      18.452999999999999      23.484500000000001                0.723831
   275   1                 20.5807      27.656300000000002     0.76291399999999998
   276   1                 11.1088      27.453199999999999      5.1675300000000002
   277   1      2.8189000000000002      22.188500000000001      9.7948500000000003
   278   1                 13.6092                 25.8445                 18.8568
   279   1      23.969799999999999                 15.2685      8.6562400000000004
   280   1                 27.2075                 20.2409      16.983000000000001
   281   1     0.89211600000000002                 10.1173      7.7435099999999997
   282   1      9.4692699999999999                 22.9268      21.299499999999998
   283   1                  27.387                 12.4682      18.367599999999999
   284   1     0.45613700000000001      10.675000000000001      19.024100000000001
   285   1                 8.10947      9.6686700000000005                 4.72079
   286   1                  9.6852      9.8670399999999994      21.810199999999998
   287   1                  10.128      12.504300000000001                 12.1096
   288   1      19.171399999999998                 14.1069      1.3079799999999999
   289   1      9.2285699999999995      20.480699999999999                 10.3644
   290   1      23.904900000000001      1.9981899999999999                 25.2349
   291   1      6.4190699999999996                 6.77949                 15.5899
   292   1      14.892799999999999      25.077000000000002      24.117699999999999
   293   1                 10.0242                 11.0047      14.709099999999999
   294   1                 2.31873      24.203499999999998                  11.698
   295   1      28.363700000000001      6.9978600000000002      3.2400799999999998
   296   1               0.0859766      3.2126999999999999                 11.6815
   297   1      9.7822800000000001      20.222000000000001     0.83731100000000003
   298   1                 13.6219      1.3259000000000001                  14.263
   299   1                 16.0442      20.219899999999999                 10.7875
   300   1      12.248900000000001      4.2626299999999997      14.315799999999999
   301   1      19.004999999999999                 23.0367                 15.1487
   302   1      22.553699999999999      25.135999999999999      11.151899999999999
   303   1      21.558800000000002      24.396999999999998      7.8695700000000004
   304   1      7.0739700000000001      17.124600000000001      25.566299999999998
   305   1                 14.1065      9.2013599999999993      17.833100000000002
   306   1      1.7647200000000001      26.247900000000001      20.498799999999999
   307   1      27.191800000000001      19.972200000000001      20.136399999999998
   308   1                 14.7735                 6.72187      12.593500000000001
   309   1      9.3938299999999995      22.025300000000001                 6.78545
   310   1                 17.5961     0.68064999999999998      22.132400000000001
   311   1      23.707000000000001                 14.8865                 27.0547
   312   1      19.749500000000001      3.0890900000000001      5.8769900000000002
   313   1      12.389900000000001      19.003799999999998      27.750399999999999
   314   1                 12.6107                  27.061                 16.9514
   315   1      23.910599999999999      17.750399999999999      24.008099999999999
   316   1                  13.391                 10.6714      28.232800000000001
   317   1                 23.7544                  15.205      21.883199999999999
   318   1      2.1336900000000001      8.8894199999999994                 17.4268
   319   1      8.1874800000000008      27.569299999999998                 14.0244
   320   1      18.256599999999999      20.513000000000002      27.971299999999999
   321   1      11.618499999999999      10.578799999999999      12.777799999999999
   322   1      24.989899999999999      7.1058399999999997                 18.4358
   323   1      25.336200000000002      18.478999999999999                 15.4351
   324   1     0.43641099999999999                 3.01511                 1.01003
   325   1                 23.9313      23.073899999999998      8.4069699999999994
   326   1                  17.849      19.598700000000001                 21.1647
   327   1      6.3098400000000003      8.2979099999999999      7.3805500000000004
   328   1                 15.5763      21.025600000000001                 24.1981
   329   1      24.106100000000001      8.4754100000000001                 26.0212
   330   1                 26.4251      24.849499999999999                 3.01776
   331   1                  12.621      18.025400000000001      4.7400799999999998
   332   1      14.825699999999999                 17.7379      9.7100399999999993
   333   1                 2.60806      23.000699999999998      4.4863299999999997
   334   1      9.2835099999999997      7.2141799999999998      2.5746699999999998
   335   1      22.688600000000001      7.2851800000000004      20.393999999999998
   336   1                 27.4391      1.7052099999999999      24.275400000000001
   337   1      8.3189499999999992     0.16897599999999999      9.2673000000000005
   338   1      19.996500000000001      24.751899999999999      21.508800000000001
   339   1      1.4764200000000001      9.0564499999999999      12.736700000000001
   340   1                 6.37751      23.694700000000001      21.067399999999999
   341   1      6.3590799999999996      3.7690100000000002      24.073899999999998
   342   1      8.4401600000000006                 26.4268      4.4719499999999996
   343   1                 10.9313      7.9347399999999997      13.960800000000001
   344   1      23.822099999999999      21.861000000000001     0.84556399999999998
   345   1      16.617899999999999      24.896899999999999      5.8457600000000003
   346   1      2.6540400000000002      20.001300000000001      5.2045000000000003
   347   1                 19.5976      15.282299999999999      17.879899999999999
   348   1      23.090399999999999      7.9996799999999997      2.4480400000000002
   349   1                 15.0541                 8.00441                 27.4512
   350   1      12.431699999999999      7.2953799999999998      26.793099999999999
   351   1      6.6054399999999998      26.161000000000001      7.0376200000000004
   352   1                 15.9574      7.4806999999999997      19.180299999999999
   353   1      23.035900000000002      20.591799999999999      23.131499999999999
   354   1      11.855700000000001      6.8142500000000004                 22.0411
   355   1      22.547699999999999      25.571899999999999                 25.0825
   356   1      7.8393699999999997      18.724799999999998                 23.4313
   357   1                 14.9129      14.491400000000001                 15.5258
   358   1      4.1192500000000001                 13.4794      6.0972799999999996
   359   1                 10.6287      4.1225500000000004      11.180999999999999