LAMMPS data file via write_data, version 2 Aug 2023, timestep = 4000000, units = metal

1002 atoms
2 atom types

0 28.422298224662292 xlo xhi
0 28.422298224662292 ylo yhi
0 28.422298224662292 zlo zhi

Masses

1 6.94
2 14.0067

Atoms # atomic

687 1 3.204713764193303 0.9775186689357643 2.955530840803628 -3 0 -1
283 1 0.07276059815952544 1.6854073829101648 1.4403153109161169 4 -1 -4
567 1 2.953778430804159 3.1892455543443337 1.4133593660863 4 5 -1
109 1 3.211338214261893 3.988745599069058 4.4501838122086905 1 -3 -1
896 1 0.3957085328197506 2.219004311672293 4.265853113384112 2 1 2
817 1 8.175849070101597 2.2296181780188515 2.065591035616944 2 2 1
304 1 9.288528879927599 1.5550025973869617 4.22478356595984 0 3 0
476 1 5.801170048508781 2.015297531007174 1.4772448358639094 -5 3 -1
267 1 6.651603526744057 0.7661001225870724 4.2747004075779955 2 -2 -1
274 1 6.662552554448506 3.5079307822827364 4.573155910094768 -1 -3 0
262 1 10.65794446585679 1.2920221554334408 0.9150293064183135 -1 1 -4
904 1 12.963096614489412 3.2685513276580345 1.5433750350383841 0 -3 1
789 1 10.24627420099725 3.9448305413913043 3.000668334010039 -1 -1 -2
359 1 12.196133856984241 1.295079738721945 3.3588713344957095 3 2 -4
858 1 15.571699788175685 3.843601535527599 0.9114032338697634 0 6 -2
389 1 15.464594780965852 1.0798479596017811 1.8395994308228656 0 -1 3
997 1 16.974734653009197 3.2171276127109802 4.038542939475037 -3 2 0
934 1 18.709907971775817 1.8524544981266438 0.3616820612384438 5 1 2
230 1 18.224903529764237 4.644885480901367 1.0605803576796422 3 0 0
369 1 18.66989509031506 0.16923783782283014 2.8584095664956997 4 -1 3
58 1 19.95460016724457 2.6507400950362885 3.1651647983902524 -2 3 1
428 1 22.313843941285096 1.323400360293554 4.269497956856475 1 2 -2
536 1 20.894923847732652 0.5599808262118359 1.5262619612832795 -1 4 3
982 1 22.77112016002237 3.768093982977826 3.797684807080072 -3 1 -6
450 1 22.369260046672924 2.6844692066012734 1.0704278245711405 1 -2 3
655 1 26.64273879757782 4.336474417334275 3.4991586206780037 -2 3 2
401 1 24.88574395175889 4.644534575339249 0.9119521179698322 0 -1 1
993 1 25.367411748700963 1.8722476853340682 2.2490596582047955 -1 2 -3
410 1 28.18516762901382 4.171587403045674 0.7499228662942226 -2 2 -1
517 1 0.4462261794056841 8.021839876967075 3.1252641624761637 1 1 2
793 1 2.3696080185020287 6.149533101110708 1.659380942600013 -4 1 3
925 1 0.9042929797809383 5.39819286918984 4.448266453675124 3 2 -2
148 1 7.993391418713284 7.89958559476027 1.791529795749041 2 1 -4
391 1 7.850792862814379 5.876962428245288 3.547541973650522 -1 3 0
897 1 5.1719501553655745 7.063658131679704 0.6259165547605919 2 -8 -3
254 1 5.0657265900732815 4.984625648639212 2.3985403519170165 2 0 5
269 1 9.060034747909857 4.978627659317786 0.6908841911308717 -4 2 0
758 1 12.084377855287341 5.971670539320404 3.565934391058456 2 -2 -1
135 1 13.899136323588069 6.144235447162383 1.255329346351718 -3 0 3
343 1 12.31346472763265 8.74086411321811 2.7858844516775423 -1 5 2
445 1 10.784148892585003 6.916900454081852 1.5935295883493807 4 1 -2
863 1 16.388931263877108 5.5536370564882915 3.029666616265401 -4 -2 -1
907 1 17.714677767205703 8.62835599924067 2.887949964417655 4 1 4
634 1 14.285334480024225 8.02860529927919 4.197928148753489 0 3 4
55 1 16.45139183734288 7.206447250518391 0.6806948407633645 3 -3 -1
320 1 20.102775830251105 5.9745930010902795 3.455129786187671 -3 4 0
682 1 19.092407844781516 7.8555647239710735 0.34596497851306485 2 -1 4
188 1 22.083996365005085 5.63191113991257 1.521689738873017 6 1 1
994 1 22.39067754460862 6.895640873779146 3.952518652341976 1 -3 -2
985 1 20.77004956392777 8.50905248615659 2.0814683646669194 -3 -2 -3
600 1 20.42131238030371 8.919201591827646 4.510700020861373 1 -1 -3
629 1 24.838704698574023 6.260486318365622 4.215628218674909 -3 0 -1
129 1 23.74455526905682 8.955684471539069 2.1784583068412213 4 -1 1
874 1 25.752527157084714 7.0880151958474515 1.4796360233040167 -1 2 3
373 1 28.385433536126527 7.972900612952086 0.49278776230029536 1 2 4
521 1 2.6131122615819877 10.187355759176622 1.5104907473122555 2 0 2
315 1 2.0483443209827903 12.877732532461893 2.1796702075685555 3 2 2
380 1 2.040046083455472 10.698620290040186 4.391187203798915 -2 -1 2
627 1 6.316067728596706 9.52944323212267 3.4874061289808407 0 -2 2
732 1 5.308840486696432 11.658062394556396 4.713796340569774 -2 -4 3
374 1 9.298952036805352 10.585291383103971 2.0507932313262662 1 3 -1
478 1 5.295379531643183 11.986009292937103 2.1754576682390594 2 0 0
750 1 8.01188530010601 12.720168463324704 2.7913255543211 -2 -5 -1
116 1 7.145256237846449 13.937440053589125 0.71346577285751 -1 0 0
936 1 8.293327900513816 10.721471895224253 4.533442008320174 2 2 2
719 1 5.102306645650194 9.787947863160971 0.30890519983401515 -4 3 0
120 1 11.09878691979867 14.055488925880592 1.8610934486460582 6 5 4
386 1 13.380907147042679 11.038622095431291 4.736677588890662 -3 3 -2
2 1 13.442279718052484 14.16430669125192 4.526582280265763 -2 0 3
978 1 10.662704310227388 13.167758821173386 4.060161675701486 2 4 1
537 1 10.988562199883502 10.040812643866728 0.16657422628750257 2 0 4
101 1 12.643328712695121 11.674415953560436 1.8666556317761325 -4 -1 4
523 1 16.34976435141374 12.28760065148048 4.189633207484792 0 -2 2
644 1 15.19135689777313 10.144783331917278 2.5564935353091864 2 -1 -4
620 1 18.81250633239376 11.043324369696778 3.312350989030342 2 1 -2
218 1 14.693699986436147 13.535248099698839 1.6743338630328295 -3 1 2
79 1 17.36711610878668 12.796899502694274 1.2459005614521823 1 2 0
23 1 17.16062228876485 10.55704754979139 0.07114679765508214 -4 1 0
16 1 19.668880154191946 13.831493727683263 2.6604360562558833 2 -2 -4
317 1 20.180178225377208 11.169553331641284 0.6015343230731545 -1 -2 2
617 1 21.74394890796031 11.938157507085025 4.072614830366676 0 5 3
140 1 22.19905520774001 13.514991020173058 1.4584356232915214 -2 0 -2
35 1 26.542442420610033 9.67608818991445 3.0771499840719585 5 0 -3
861 1 28.154549212094395 11.034254794284974 1.3768174208997366 3 0 -2
239 1 28.21708494078465 11.676495147092076 4.02385461606599 1 2 2
938 1 27.46605017282094 13.672906759501243 1.2526586346921857 -2 4 3
398 1 25.835524055546504 9.96450090363216 0.6062645758337766 -3 -1 -2
322 1 25.142331541909023 12.017112412897312 2.5223741941316042 1 2 -1
295 1 0.975227669643929 14.650503298063006 3.9664435118963515 1 -3 0
50 1 3.797748765418261 14.535178573019548 0.15736663146136723 0 3 -1
453 1 0.9517945453281849 15.25972950898209 0.14398249767828802 1 -3 -3
495 1 2.3439769171754006 17.959283711057648 0.855928814204267 1 0 0
460 1 4.401108069784583 16.68130007893606 2.7457091940963534 -2 -4 0
713 1 1.811835598373421 17.542310114866265 4.307842015433397 3 -1 0
569 1 4.408979978058996 14.598767589920216 3.779516405006621 2 2 6
435 1 7.3195938937704295 15.104449091980566 3.557623705137818 2 -2 0
247 1 6.568598278743903 16.882132518039406 1.1013130920034317 5 -4 3
81 1 9.278741158213606 15.880274759256524 0.8290813319904525 5 1 3
533 1 8.663102181397912 18.46282450291805 1.861596308250449 -3 4 -3
434 1 6.692809071804485 17.400132043056058 4.113657351094194 0 4 -2
989 1 9.319390439676583 18.471007471672408 4.650735554753913 -1 1 2
813 1 10.439325009098903 15.949950219259856 3.4000337262150033 -4 4 3
829 1 12.205943609590033 17.42402142722504 1.444308709372937 -5 -2 -3
8 1 14.563824610938626 17.133407425912967 0.24631241718774483 -1 1 -4
105 1 16.982492161527805 15.173130348249536 2.985287430715025 -6 -1 -3
648 1 14.380364807554665 16.304365136948565 2.874763091530748 1 -4 5
414 1 17.20340938401898 18.46583796559022 1.2279943321093458 0 6 1
438 1 23.260885954977557 16.439929168682447 2.0829632272525567 0 -2 -3
917 1 19.981378434333706 16.451960181828735 1.3749057967558478 0 2 0
88 1 22.582694860698037 18.51573106124682 3.9737312999312655 4 1 3
70 1 19.2571533083263 17.78939831749398 3.882427368977887 -1 -3 -1
530 1 21.35283186978501 15.823479841967895 3.9445661887479595 2 -4 1
162 1 23.821215599558784 14.608913236164895 4.103110969288721 -1 -1 0
96 1 24.243945964257232 18.69885720952476 0.8736691537506039 0 -4 3
330 1 26.417836585036948 14.76594952614457 4.303278306533309 -1 3 0
721 1 25.445124224896283 17.61219620236292 3.271782509298242 0 1 1
86 1 28.349748339893434 16.591906549928705 2.4936061079110146 -4 -1 0
675 1 25.584500245263154 15.4322968569888 1.6042699625736874 0 2 2
851 1 27.994186966212688 18.70001676849061 0.34328665816881676 1 2 -4
680 1 1.223384031675503 20.651060839272205 2.84336387541067 3 -3 0
706 1 3.713849211951658 21.622272557586562 2.850454861909277 -2 1 0
278 1 1.0265000160383884 23.385990338068616 1.6974742296702026 0 0 1
615 1 2.2330311675003225 20.632405155016134 0.07922937463219051 3 -2 1
999 1 3.946214382359936 22.983470400850276 0.5340174978042885 2 -4 4
841 1 5.155786479896001 19.540612325773264 0.4320592692129369 -1 3 0
663 1 6.607079026696985 20.08317089988335 2.9089796730446515 5 2 3
249 1 9.086816220558768 21.573506099064133 2.3931318069851724 -2 -1 1
7 1 9.114913278854166 20.397704192097066 0.13682825062712833 4 1 -1
479 1 6.37760867077378 23.144724016129484 2.5875616793195824 0 1 3
957 1 8.442143265051909 23.274007792907778 0.35208718906796904 0 -1 0
196 1 11.559386520549033 22.336742275008373 0.5633751868989981 4 2 3
911 1 11.00483503845712 19.789725163399183 2.7909879744475963 -1 -5 -3
873 1 14.003921437013073 21.167393436945318 4.559043675056547 -9 -1 0
909 1 11.513093659839704 22.730893865220903 3.804005440130606 1 -3 -1
432 1 16.603262089116274 21.398652454750398 3.2746696382324316 -3 -1 2
963 1 14.315377277437745 19.39330304200026 2.5474088677652604 2 0 1
970 1 14.565384867938052 22.737973111926276 1.7941104579470202 1 -2 4
145 1 17.97699241040134 21.118397052658704 0.2762406323397998 -4 -1 -1
424 1 17.379557145048388 23.540622157452937 1.8307888788502957 -2 1 6
237 1 21.971142863099196 21.413075449801266 3.7491444929264115 -2 -1 -1
572 1 20.101158938080555 19.97607741581469 2.2613329469540773 2 3 -2
772 1 20.021593879730176 22.476593626993076 1.8213825315272063 -2 0 -4
976 1 23.508679565051356 23.28477319716548 1.6100028612104997 -3 0 2
73 1 26.976745001146863 20.03338864687577 3.57712283787233 -4 -2 1
294 1 24.459379324437823 23.259882067427576 4.679887893443179 3 -5 1
709 1 24.760841833210236 21.020408321664224 2.369712884989983 1 -2 0
576 1 26.90900413585735 22.75895833653764 3.4315951675070036 -2 2 -1
612 1 27.477584811092573 21.31074523235056 1.20229574230177 -4 2 4
946 1 1.197645884165251 27.35612189939996 2.037543854392803 4 -8 2
212 1 3.5101817122780674 23.918700449078358 3.8336762615911244 4 0 1
653 1 2.887523619816159 25.589347182287963 1.3488738050443205 3 0 0
603 1 0.10289761111225756 25.482144603832282 3.291640995737304 1 0 -1
342 1 1.181169564684947 27.900892257910424 4.716378672819412 3 0 1
539 1 5.120338331393561 27.667523433691887 1.8458687812090893 -2 -4 1
835 1 8.384552961540619 27.987072439434584 2.1743251064922267 -2 -1 -5
130 1 5.9546786812067385 24.849799189944605 0.16498166885128784 -1 -2 -3
454 1 4.80956162634785 26.41429486550711 4.386717230151022 2 -5 0
950 1 7.741093397156218 25.575299692943766 2.6381840355917427 3 5 1
734 1 12.836989412863685 26.137490525356256 3.7210953599297167 0 1 2
310 1 10.100014764221047 24.50350995080281 2.576372443023049 -2 1 0
169 1 12.571689300803422 27.670373390753088 0.8430668269627507 1 2 3
956 1 10.37685530692552 27.48473342189191 3.379207811147112 0 -1 3
345 1 12.575599535803521 24.59368367336632 1.4627925143112237 -1 2 1
323 1 9.797230455226746 26.576344824502996 0.31469044748032426 3 -2 0
832 1 15.707728286003984 26.090327885403227 1.9878691166762834 -2 -3 -5
311 1 17.997156766479584 25.862522681323046 3.929499997131636 -6 3 6
443 1 14.41195979706312 24.2439793386678 4.3782563320978145 1 2 -3
830 1 15.415381160025944 27.499887165542617 4.177616555383881 1 -1 0
992 1 17.890263371700623 27.5759675576234 0.05469829703635674 1 3 -1
18 1 23.22226588509125 27.828603828873185 2.525185763400815 1 0 -3
794 1 19.618107111978052 26.480181306105113 1.472434920036157 -6 1 -1
763 1 20.46532380762789 24.07550046408287 3.966435695068984 -4 -2 -1
752 1 22.08687591463029 25.501250230983214 1.8428506814608394 3 -2 -1
527 1 26.78178339044587 27.953658049302195 3.1833175364620594 0 -2 2
327 1 24.74250467199167 25.774234612890247 2.8200921895785314 1 1 3
326 1 26.397676619000766 24.27439742880208 0.8023015355089732 1 1 6
313 1 24.281753000639604 27.17775288631874 0.3152574291744906 1 -5 2
482 1 26.697848576080176 28.197961038332146 0.4605647867410474 -3 1 1
115 1 2.696050636331313 3.353052855866998 7.501845926355836 -2 -2 3
672 1 4.049302491419555 1.1340448921597406 9.279652009097221 3 -4 1
859 1 1.7237061324234682 0.6609775195131272 7.606004105315393 3 1 5
727 1 3.781347691077177 1.1007092960805216 5.834182661942573 3 -1 -2
221 1 5.252643345072335 3.734114836529428 7.410156506719292 0 5 -2
988 1 8.36764714229447 2.790847034606932 6.8977887892609795 1 1 2
892 1 7.110731375401779 1.8076549460904618 8.815760161371681 2 5 0
26 1 9.203429814375628 4.581742268104559 8.71620773387105 2 -1 1
57 1 10.599096541206487 1.5467099714098522 8.68954764859673 2 2 5
582 1 11.926473521426157 4.0234899576116705 5.813631317241108 3 3 -1
448 1 12.860838042495327 1.9370429515098775 7.097285885561699 0 4 -1
735 1 14.556928867833474 3.7765523955468763 4.755896846494597 -3 -2 0
492 1 14.968337379349217 4.112489015395742 7.426690485864862 -1 3 -3
720 1 17.50390188285158 3.9429701592478192 6.495565877112843 -1 -1 -2
516 1 15.810293310225688 1.199951915557349 6.008366359403836 1 -1 -1
678 1 17.815380279307753 1.4483892388727972 7.983400164454048 4 -1 0
741 1 19.18274551876517 0.5955705053199631 5.750533274509106 -1 2 0
550 1 19.217674957941192 4.409339867767809 8.614164960321538 -2 0 1
707 1 20.51267606172056 2.001642786879525 7.610682381731791 -1 -4 4
820 1 22.69024648360513 3.6618623538374506 8.955758932281237 1 2 -1
839 1 19.8352090169871 3.8575523693830442 5.480433102924594 -1 1 -1
885 1 23.444728456870354 2.3865998517857014 6.802529711687094 -5 2 2
543 1 25.576199100641787 2.270338338968783 4.899644246590685 4 -1 -1
34 1 27.27550057290577 0.1511027056496695 6.168341249848987 1 -3 2
449 1 26.205514374413138 2.2274278197564006 8.203808839230172 0 2 1
540 1 28.240441212307122 3.693566412448935 7.071138380307205 6 7 3
941 1 4.375190076248736 6.627024423125596 4.836144020776272 0 -3 -1
91 1 4.5555705497476495 9.416923508475653 6.272934552098285 -2 2 -1
296 1 4.5144899609413045 6.7512825558434155 8.279294924573106 -3 -1 -2
626 1 1.5972535183288916 6.129316407604405 7.22853624787644 -2 -1 1
456 1 0.1797255762512935 8.868351410998436 9.1869812633766 2 -1 3
89 1 1.4931780995252493 8.57221514844775 5.816550708249471 2 -1 -1
214 1 7.2008694715062544 8.34014540035367 5.953917229056371 -5 -1 0
871 1 7.057366912087677 5.619177296457757 6.779551238267034 1 0 3
437 1 8.432776078090567 6.766097447612174 9.1090607862629 4 0 0
309 1 9.933628363874915 5.1898419083712195 5.3817899116036445 -1 -4 -2
467 1 12.393763929310365 6.037349858971698 7.392221996811203 -4 -1 -3
541 1 10.485977224410922 7.919457437759259 5.012405131951228 -3 -1 1
53 1 10.383692138380665 7.945341029178125 7.573778821281112 -5 1 1
361 1 15.23713140671065 7.50268862517797 7.782110933891311 2 1 -2
282 1 16.810265475383446 5.821519463608642 9.13658423842854 -1 3 -2
470 1 17.351801271629736 6.775997473952616 5.966835859042596 -1 -3 -2
33 1 18.033691162035336 8.638272119687255 8.282471921607874 -5 3 1
133 1 19.739176640738908 6.82717699731435 7.062328059540621 1 -4 -1
748 1 22.380383714261903 8.61457997986216 7.545010778248733 -2 2 0
632 1 22.188162126506224 5.524844063463392 6.070021229800602 0 -1 0
590 1 24.10618953318254 9.449629479848028 5.564558503875478 -1 3 2
92 1 26.62237456206185 5.643942069215429 9.301833909438852 -3 4 -3
426 1 25.463330893819744 4.757881328011388 6.964761317871283 1 3 2
102 1 27.04158767430397 7.343179535380979 6.0269355979106125 -1 -2 4
201 1 25.50679358984098 8.268328904271984 8.929758760919592 0 4 -3
692 1 23.835441275085714 6.351162607659803 8.964015512758166 -2 0 -3
562 1 3.1222482931061837 12.625809700224357 6.145846253700236 2 -2 3
592 1 3.1453446764498953 10.134231686330983 8.043868264410127 2 -1 1
206 1 2.2827893793767133 12.391367364575197 8.870860982445326 1 2 -1
266 1 5.685119053366853 9.580152654951425 9.317444381931184 -3 -3 -2
954 1 8.561480653409228 10.49260122801699 7.565076253323621 1 0 0
441 1 6.012277691681993 13.94901499204954 6.456471238928186 -1 1 0
746 1 5.597065609010147 12.330963465124503 8.147026268307355 0 3 2
194 1 8.814354260993705 13.256623875311366 6.098448203756336 2 -4 -2
791 1 8.634334297279027 13.71776341894236 8.859229673408821 1 0 3
872 1 12.928400013522532 10.086596500787818 7.418744218852883 4 -4 -2
535 1 10.958530935009035 10.412213517718257 4.955634138971511 1 4 2
916 1 11.515779218926331 12.69444585596388 7.212824622210921 1 -1 0
755 1 15.547915741949573 10.03042008830458 6.321652461403576 -1 -2 0
173 1 14.300073422486044 12.904585641357952 7.415523260591346 -1 -1 -2
305 1 17.97423318225856 10.065560843781052 5.62521035697649 2 1 -3
553 1 17.638561068844375 11.751469600911236 7.731204481425179 -2 1 -2
512 1 18.925233577351243 13.264528112514972 5.378978368233931 -1 4 1
469 1 20.338422849961372 10.352700455349511 7.251035642718924 -1 -1 1
935 1 20.922233000534476 13.523767850539617 7.796278639885826 -6 0 2
66 1 23.461421096171154 12.172481054352533 6.408133508207816 1 -1 -1
400 1 22.647422164688805 11.58023823407902 9.22233834851326 -1 -1 -3
800 1 28.373391997695503 13.349077046992106 6.105629883464034 -3 3 -1
382 1 25.75659845870775 11.872404085663044 5.128526724565384 0 2 3
36 1 25.58040391956151 10.906284012372785 7.938001732297023 1 0 -3
379 1 27.698189136779295 10.366280737319865 6.503794919307557 -2 2 -1
797 1 4.285311956082892 18.946201389553806 5.0715487189777635 -1 1 4
187 1 3.113886811494822 14.947824869896444 8.448678002366332 5 -2 4
513 1 4.281596030738511 16.04246433774565 5.670630006426297 -1 2 3
926 1 0.2436377433122298 15.825745209772512 7.780334076222133 3 1 -5
942 1 2.308208971161541 18.2139621575183 7.177653729708735 -6 4 -2
32 1 8.259821439436639 16.186045340811237 6.431940719035714 -2 3 0
64 1 5.8612055083460595 17.551530711692685 8.233034424868166 2 -1 0
847 1 9.458183021062274 18.275108271405305 8.228661249065313 2 0 0
141 1 13.228026700716924 17.611970355607927 5.322483712387336 2 -2 2
183 1 10.794252436078326 16.18141953195589 6.312517705526762 -3 -2 2
126 1 13.415157387323916 15.792798125170728 7.957841544426064 -2 2 -1
929 1 11.182255780569069 15.159050334402611 9.440671102808517 1 -4 2
573 1 15.422786837282214 15.202094756462563 5.410878975938766 0 3 0
737 1 18.784778853585987 14.991028600455497 8.630137322447748 -4 -4 1
640 1 15.888571821852056 14.793057596294451 8.886365116884944 -2 4 -5
496 1 16.249689539977467 18.654613600814276 5.430533621294613 3 -2 -3
440 1 18.4725192653064 15.8211544862401 6.187554970144099 2 1 0
433 1 17.089469857381154 17.756089472062826 8.458189731775732 -1 3 -1
507 1 22.0341594058572 16.189763859416903 6.478870745173883 1 1 -1
551 1 20.885930915754887 17.21137859340319 9.09953744174315 0 -3 -2
868 1 25.654954283416753 14.545516109774649 7.386781596107199 1 1 3
765 1 27.719779565039662 17.144659864848247 5.2176219817688025 0 -5 3
197 1 24.787856545977505 16.846208726429033 6.571405467588708 1 1 -2
703 1 26.891646975207784 18.399817341136 8.038592762472895 0 -1 -4
595 1 0.9893029382752858 22.549459778814846 4.88469486541421 -1 1 -1
80 1 3.3792795460245157 23.314325621562144 7.173265459217384 0 0 1
241 1 2.4093577675537414 20.800712926476848 5.534192126838454 0 2 -2
638 1 0.4620747910755037 21.49532836067256 8.22654045265754 3 -1 4
348 1 4.360410853739566 20.0378962507427 8.067587931000707 0 -5 2
159 1 9.259727910599109 22.06079955925686 5.630094292128538 -4 -4 3
995 1 7.097173735558829 20.175783303524696 6.588621927382501 0 2 -1
869 1 5.115188365954576 22.101794609915043 5.038041205045286 0 -1 0
122 1 6.8679240597051745 21.785807807843977 8.784138319467573 2 -1 0
559 1 11.447697050365234 20.184933596668223 6.055594308814461 -3 -8 0
808 1 12.48618925845969 23.35482880097152 6.4115687617679855 1 -1 0
738 1 13.865308605480504 22.359631847626705 9.223549582455318 -2 1 -3
614 1 10.480087784459526 22.22029804691546 9.398080281313018 1 -5 0
338 1 11.86867732831895 19.951123672665094 8.963135583753775 4 5 0
660 1 14.34452848707318 19.018979383551315 7.55016152183493 -4 7 -2
383 1 15.005850076172967 23.265305039233763 6.830389514964428 -2 2 1
110 1 16.84046699499538 21.114420918307253 7.454704302526494 -6 2 -5
246 1 18.799442749276704 19.245627444402608 6.92905003050846 2 -1 -1
411 1 19.449565308583672 21.548838104532507 4.895682268214298 -5 3 1
15 1 19.44395030153057 22.871627808689748 7.723130173704112 -1 2 -3
761 1 22.49718334571562 22.128794297909067 6.5337482790859465 -1 -3 -1
76 1 21.72676225442676 19.876138573647648 6.297358208657488 -2 -2 -2
645 1 21.346175051588435 19.905175215536776 9.122613472239502 4 -1 2
751 1 28.322973826655854 19.88997297164113 6.2120080224929035 -1 1 3
723 1 24.696677030869306 20.00572609713677 5.498927702190729 -2 2 -2
733 1 26.292470293419974 22.64148995360757 6.378559537224987 -5 1 2
56 1 23.976658861628433 19.16479319410959 8.222944702133603 -2 1 4
743 1 23.984063892341304 21.964115857867526 9.436573365474125 1 -2 1
503 1 26.452301400152095 21.463242514094066 9.323213810183228 -4 0 2
802 1 0.21794803149794745 23.994089894344825 7.252220295243618 2 -2 2
843 1 0.38867661022089767 26.636075382588228 7.347797097733197 1 0 4
358 1 3.0125422920416844 26.38492576002485 5.936954805693513 -1 -1 2
257 1 3.1282289304473756 26.57546564751274 9.126165448152744 4 1 1
647 1 7.453829886756127 24.752748485999927 5.281533590961334 3 1 -3
922 1 9.281036839744669 24.143657715124327 7.519101112594776 -2 0 -2
172 1 7.571352752244119 27.146241386056257 5.65591480620459 -1 0 2
621 1 5.634414531900475 25.282598976265692 7.534178770050001 -1 -1 0
215 1 5.134984824911726 27.97971491084601 7.629665639530082 2 -5 -1
762 1 8.832293618172606 27.01365706077416 8.277399261247254 1 2 0
363 1 10.447720058264135 25.537062067746238 5.376052377237558 -2 1 0
724 1 13.854715194840873 26.439099058015326 6.4994939662016655 -1 3 1
715 1 10.552185182063589 28.32697941103576 6.46111547876899 1 1 0
641 1 11.332225454111462 25.769715368588926 7.941952179370774 1 -1 -2
826 1 14.160068163022334 25.612210656354677 9.009909166538401 0 3 4
127 1 17.417711546213674 23.746501558837075 5.645936055563478 3 -2 -1
697 1 15.389958981948999 28.130721709346783 8.271297407621427 -2 3 -1
20 1 17.099419039837887 24.916892170183363 8.174585540542521 1 3 2
876 1 17.918907538680962 27.30290339098615 9.092259687328768 0 1 1
82 1 17.114704845264704 27.310804682289493 6.233977009405384 3 2 3
303 1 21.575278058501063 27.46134948145023 4.855796206785159 1 3 -1
694 1 20.598093577160473 27.960448005250168 8.249544692231888 -3 0 1
894 1 19.932000235346518 25.233942880762147 6.369721617243386 -2 -1 2
364 1 23.35483582782731 27.930182157878136 7.504521204904332 -4 -2 2
4 1 23.365097786824116 25.530036408703676 5.670953339762886 -1 1 0
245 1 22.072069949562756 25.531906613787843 8.40513077682283 -2 -1 0
604 1 24.728071938327517 23.77239532539861 8.312131494922218 -6 -1 -3
574 1 24.87837109976148 28.069236983599232 5.035558289424977 -2 0 1
251 1 26.595670695484333 25.561081064657397 5.1322280828682905 3 4 4
910 1 25.940947992648987 26.085669438622496 7.5416736855861775 0 3 0
893 1 0.7674131083316311 2.9732091471090785 9.636978525767239 -3 6 0
511 1 2.506316217575375 1.1634163218634896 11.370912821173134 0 -2 1
972 1 3.809856651868579 3.8636559638509134 10.039314616407504 -4 0 3
548 1 1.5816740855623532 4.038260449477952 11.98547731116177 2 -1 2
745 1 0.20034735910692741 4.215812773376427 14.114095362128756 -2 2 -3
664 1 8.614875808259162 2.9154278163141836 11.21947103820317 3 0 0
564 1 5.029427993736049 3.308685058775671 12.573211618872575 -2 2 1
637 1 7.017969900488106 0.7868386815986658 13.338359371042008 -5 -3 0
933 1 7.774724440498707 3.6840237925253057 14.134467789142546 1 2 0
421 1 9.341261755816225 0.15724617553426587 10.985016023090303 4 -2 -1
953 1 11.301637367777024 2.5070507827133883 12.015706828882086 0 -1 0
962 1 13.02045246973909 4.112988976047418 12.713322719479022 -1 -2 1
831 1 12.97938576294119 0.8688030426282948 12.981288624094354 -1 1 3
290 1 13.301195665376003 2.520675859588587 9.802023844725822 2 -2 1
710 1 9.915760267651542 0.8196043634379822 14.14416101853629 3 1 -5
951 1 16.604490063655234 2.8057915442982404 9.71629751929325 1 5 0
895 1 17.247635628190242 0.5581466612125396 11.547010349522095 5 -3 4
146 1 15.453475527226662 2.892379185283009 12.36953614562983 -1 -3 -1
111 1 18.14387923248817 4.225466759593801 11.38450984587104 3 3 0
63 1 20.06084998384273 1.474162843045186 10.235940965799351 0 -1 3
674 1 22.775290854859417 0.6768235486428843 9.879029596012948 -3 2 1
325 1 22.51213993555772 2.5205467360619767 11.814484908698294 2 4 1
422 1 21.15631950153753 1.2576563260314506 13.911397671221144 1 0 0
340 1 20.621295096724577 4.451415184164595 12.336402145488021 -2 -1 -3
771 1 25.254106485943506 3.4699186022307535 10.145686472920387 -2 -2 6
429 1 27.266429928829826 4.058034644630802 11.810694733475 2 4 1
979 1 24.730096677868318 1.335733367054699 12.225553588854567 1 2 3
657 1 26.364958949468956 0.08154963407516093 9.684693151475596 4 5 6
444 1 28.048913335593717 1.2299733274028481 12.334901862060232 -1 2 3
974 1 3.276034070527345 9.359541750878593 10.831484045965516 -1 -2 -1
602 1 2.540406467204518 6.142246141628974 10.244377474070854 3 -2 2
219 1 1.9851979689099761 8.381445249729891 13.990211638253081 0 -2 1
940 1 3.485793016953791 5.533355022000082 13.095644808903797 1 3 3
321 1 0.2961174861920023 6.770966358482804 12.142452944851156 -2 0 0
654 1 6.513071117653005 5.180848943571059 9.989986222080619 2 1 0
403 1 5.487280684722096 7.2156161435264 11.59150659255122 0 2 2
736 1 6.267479682391887 5.940812811740416 13.95742076245284 -1 5 4
248 1 7.982929118232398 9.279376949176969 10.621104184417678 2 1 0
142 1 8.6914701427458 5.899351129632852 11.912773444735668 0 1 3
161 1 7.570044767676687 8.41983472363254 13.20729268110563 1 2 1
419 1 11.481240660227023 5.076279138664627 11.092588899986502 -2 0 1
416 1 10.759503018944757 8.168128923315653 11.785934206277874 2 2 1
301 1 12.82646855498295 7.299703884248345 9.956900990253075 0 -2 1
293 1 13.017657677814316 7.192188826771665 12.980623921134724 -3 2 0
85 1 14.676905964957493 9.169035147719157 9.88222752203569 1 1 -2
152 1 14.845394559675553 5.0006990511820355 10.587283474505035 2 0 -2
693 1 16.08606026569268 8.173112245877315 11.789435979537066 0 0 2
356 1 16.207844405044003 6.092201794119018 13.072311784805873 -3 4 -1
281 1 15.53618152589215 9.36633465956455 14.1810784042797 -1 -4 2
255 1 18.40023680724762 7.465825541774947 10.802394978178786 3 4 1
769 1 18.13674582227315 8.043687071379317 13.613748940884328 -2 3 -2
967 1 21.500350147291915 8.897266010352562 9.96034458461184 0 -5 -5
768 1 20.81553169238293 6.350752240437585 9.772549250307454 -1 0 -3
635 1 23.403816296722006 5.374855817971547 11.770056220805367 -3 -1 -1
171 1 21.050479096301924 7.961387717663367 12.764095863379314 2 3 1
867 1 25.958466071479993 7.3311289930225785 11.521136964154207 -3 -1 0
158 1 25.68412267944239 5.52792732310945 14.006741103132676 -4 1 1
544 1 24.317067426440556 7.804978754042129 13.432137570160782 1 0 -1
242 1 1.6751656694515793 11.813754470458333 11.78423814125465 0 0 -2
134 1 1.2243456910762582 13.77880025685048 13.323093207283437 4 1 0
352 1 3.0400115528230307 11.686938550508762 13.863412215932195 1 3 -1
673 1 4.6861744451044975 12.214331861886285 10.303300563337157 2 3 -2
328 1 5.492128095616912 9.880596219899074 12.70232586542446 -2 -4 3
857 1 7.536065135149381 11.803964651790185 10.615778938277552 0 2 -3
409 1 7.59269951707054 14.006177117640773 12.110911716421718 -1 -1 -9
193 1 6.049424709920309 12.198337988571906 13.382246573968146 3 1 1
388 1 10.891336446398357 9.579115929091156 9.727345454794087 2 1 5
671 1 10.775436464842413 12.585571115308905 10.821593324074563 0 -3 -2
628 1 12.971605482772523 9.939434955358848 12.191223824562785 -1 -3 1
980 1 13.703158844346166 11.710273664411906 9.97853562109257 -2 -2 3
41 1 9.492848322652579 11.14717509011028 12.837300108230096 0 2 -1
420 1 12.0095057005579 12.77939796847219 13.235829644363879 -2 -8 -1
205 1 16.564159634453155 11.697876876839654 10.710559569844373 3 0 1
372 1 17.451488310709607 13.278892792280217 12.869028104592358 -4 -3 0
545 1 14.795800617974699 11.958955593435256 12.896185748128074 -7 4 1
583 1 18.637626572482617 10.329377418424627 12.781365655216284 -3 5 1
28 1 19.733062537448838 11.64693683372803 10.124023951022837 5 -1 3
990 1 21.783469752326205 12.750347738315417 11.838880203271124 2 0 -3
430 1 19.571916232851756 13.900627893998115 11.315888387957338 -3 0 3
370 1 22.206017572599762 10.406399994688243 13.491228450403527 6 -1 -1
888 1 27.972262880141493 10.732354123754316 13.489011915452085 -3 2 4
619 1 24.041958399264228 9.622028400749322 11.22832318708919 -1 0 3
864 1 27.91930886789686 12.761841237239755 9.579483444757926 0 4 1
459 1 25.347369296058602 12.485234268917864 11.276561377156176 3 2 3
767 1 26.98351989081623 10.204890403065813 10.532150358327113 1 -3 0
287 1 3.730126714416516 14.534169765806507 11.734671396797463 3 4 4
695 1 3.6478366505808704 17.66645691245545 9.81161219912575 1 -2 1
387 1 2.2258900417009397 16.616919838787137 13.279191650420193 -3 -1 1
61 1 1.1986346309652827 14.848075298373372 10.65378305549267 3 -2 -5
397 1 0.3149799012731187 17.516058513296056 10.408331211576392 0 -1 3
642 1 5.840861210835341 15.005660517742305 9.710165244659413 -4 0 2
796 1 8.974643145366048 16.82824277039139 11.065277651953062 1 -2 0
481 1 5.670865959892063 16.598033915727473 11.680539648966263 0 -5 -2
714 1 7.835435255706947 18.90395042969605 10.032249453344251 1 -3 6
273 1 7.768336165422916 18.626830112725226 12.472797263379258 -3 2 -1
696 1 7.505750753832714 16.055278315572586 13.671687525693521 -1 -2 2