LAMMPS data file via write_data, version 2 Aug 2023, timestep = 8000000, units = metal

1002 atoms
3 atom types

0 35.22820204664032 xlo xhi
0 35.22820204664032 ylo yhi
0 35.22820204664032 zlo zhi

Masses

1 22.98976928
2 14.0067
3 1.00784

Atoms # atomic

254 1 3.0494785373101054 3.740386873363097 2.7723563180868642 0 2 2
331 1 6.012854038131316 1.981116629864064 2.474312203727738 2 0 5
836 1 9.227572498724639 3.955337484140341 2.4011254299139684 0 -1 -2
148 1 10.064015863084135 1.1652497745522172 0.6694441629889664 3 3 2
195 1 9.324304485621212 1.392431229634367 4.797332603013083 5 -2 -1
716 1 13.331447446570289 1.5867887001969396 2.387781062451038 -1 1 3
563 1 17.034033973351 2.387436914839922 2.6457273524747276 -4 2 1
879 1 20.923754937590807 4.249358496576615 3.06711335236014 -3 1 -4
368 1 21.23369948878725 1.1532699792013674 4.845190838655922 2 0 -1
336 1 23.891656874034073 3.3076802280442545 3.3877866937330703 -5 1 -3
776 1 20.566888423719423 1.9812137375622898 0.5654882184044063 3 4 1
589 1 24.460415599778806 2.830384339700978 0.17507497668485894 -6 -2 -4
93 1 29.12695825520863 4.747398072199107 4.011094199467684 0 1 1
544 1 27.675957090801894 2.368972617303001 2.1932580598006335 -4 4 0
60 1 30.839707371740513 0.6844346114765901 2.520174310539741 3 2 0
609 1 34.43370644005046 2.443781692505581 3.2992787667371033 1 3 -4
705 1 31.90741381755712 4.809537996030332 1.9881780893792154 1 -4 -1
34 1 34.87492317141706 2.945631675406519 0.10470513228684707 5 -5 4
752 1 1.5774279173434689 6.454112242455615 0.45572597885357946 -1 6 4
674 1 1.529064478222165 7.443583239439522 3.4816421389476706 -1 2 3
239 1 4.823849331543892 9.462815026583993 2.2645758075733773 -2 -1 -2
8 1 5.451213433485695 6.488784701502219 0.8071671292567145 3 -4 6
490 1 7.514574288230177 7.35391447443963 3.673994275380181 6 -3 7
592 1 10.133110809693234 7.06340240434582 0.3330346118167335 2 -5 2
7 1 14.294394206129603 7.876868218703764 0.9422308780760449 3 0 4
3 1 11.025671128717589 8.918718968026585 3.5694961061042765 3 -1 0
945 1 12.58488211310771 5.719687875246298 4.79740680104343 3 1 1
626 1 15.540083966372642 5.382237261147023 2.853467308463745 1 3 -2
599 1 16.019752696216532 8.666018817186183 4.7265900145547795 1 -1 -3
309 1 18.052572625913353 5.462878890427931 0.21472950690774592 -2 -3 -3
842 1 17.928512549071716 9.247483554011803 0.5616392161915313 7 -2 0
478 1 19.561253230341624 9.857608854150975 4.53489127955256 -5 7 -8
796 1 18.787021468911178 6.811786637875672 3.64642640690078 0 5 1
41 1 22.75728384784942 8.846996566172969 4.1392189827644135 1 -1 -5
50 1 23.726301073043015 8.624632870170151 1.1993440736266539 4 1 3
743 1 26.378287266013068 7.299721409875885 4.8336978844037 2 -1 1
423 1 25.410661822144107 5.72248740259421 0.9106660664619592 4 -7 0
857 1 28.473730921033667 7.554284374863729 2.497420345663154 3 1 4
465 1 34.20108340466892 5.732057986540952 4.9887121795452 2 -1 2
401 1 33.43464248885821 8.645195133797197 2.716918371907271 0 2 -2
969 1 30.53465693299023 7.753939674817092 0.16107879709380948 -5 2 -1
538 1 4.388717705406226 14.513091471367433 1.1036155304355537 -6 1 1
300 1 1.6908653846843194 11.779213110287753 4.3149321976512764 2 -1 5
33 1 1.4628782639885036 10.545653798502672 0.0930735811351862 3 4 -1
636 1 7.774872829393579 10.218067176174452 1.3242244310719467 -4 2 0
578 1 6.359481765795385 12.298273246840024 4.139912498736221 2 4 3
710 1 8.01549463761982 14.657203264560579 1.9146234102208763 1 0 4
870 1 10.562047737140782 12.611259467470209 2.6370702878852246 3 -1 -1
712 1 12.811071714742013 13.799064912991094 4.5379811064467654 4 1 2
245 1 13.801050243634359 11.29082933855557 2.712256293262899 -1 -6 2
199 1 17.791479348470663 12.46145817312216 2.3424789377905637 -1 -2 0
212 1 16.265906825083913 14.903827821124622 4.08965633728829 -1 -4 0
88 1 15.19394173229651 13.806542497799182 0.7994255221714512 7 -4 -5
573 1 21.830008015429375 11.47338100202604 1.5693483950960738 -2 8 -2
775 1 21.588598357618498 13.78696374490738 4.686854369308421 -4 1 -2
358 1 25.195864150518734 13.477006940621045 1.9219634666438112 1 4 -2
572 1 26.01996569705155 10.325357836039856 2.3225640824326734 1 1 1
748 1 27.787024396314177 12.742329497453415 4.366138790679129 0 -3 2
47 1 34.99790983997498 13.991075321410708 1.0890538123481566 -2 -2 -5
306 1 30.400152617155076 10.646733804688754 2.847864167317595 2 4 -1
816 1 33.24940081281495 12.105157912269766 3.77329150612849 -4 4 7
669 1 30.617066853029794 14.118334854576874 1.8526604440215242 0 2 -2
924 1 2.2571929990975743 15.617196756169283 4.0071371227005494 -2 1 3
783 1 5.452425185148513 18.08922757325459 2.324580100736094 -1 -3 1
323 1 8.863426242707995 18.33975705025366 3.47323775442293 0 -6 1
665 1 6.086251439468246 16.123025941665034 4.804004693998758 0 2 3
129 1 10.456866914770053 15.530836963855693 4.672631583874475 0 2 2
197 1 11.566404061803123 15.367002829953465 0.13761813253062347 0 -2 1
850 1 14.063759380587744 17.568041749448806 1.342216622123464 1 -2 -2
66 1 17.12175518795887 18.096958268733825 0.6064487497210694 3 -2 -2
136 1 19.30638519686833 16.459874324246567 3.4776024206606895 1 -2 -1
70 1 24.984951928046037 17.83101412277588 2.92241888980402 -3 -5 3
223 1 20.982132391424166 19.166609528272588 1.3450119768894893 -1 6 -4
429 1 22.188249037315174 15.899550837874514 1.7104684763655347 -1 -5 6
177 1 27.25604121096527 16.73680360932867 0.8720880516511162 -2 -2 1
445 1 33.917333752843554 16.778396039577476 2.0551577125124667 -4 0 1
959 1 30.71075744667442 16.43212017725032 4.824657836156327 3 -4 -2
876 1 30.55259754153081 17.996649750910816 0.9286815740878319 -2 -5 -1
45 1 34.401794445473406 19.250111556059608 4.200065258685724 4 -3 4
85 1 1.4203817570793684 20.336878571932136 2.0523151482608024 0 -3 3
930 1 0.25930257522941635 22.646831939948935 4.421878107671319 4 -2 -1
23 1 4.401184689422186 24.971604630086098 3.391323706567525 3 0 -1
110 1 4.972007348218856 21.325940944979006 2.4585123117019636 1 -1 6
1 1 7.160953421443998 21.76465211539872 0.08592974898022732 -4 -1 2
511 1 7.226032131496763 23.434117697571477 2.941861554926086 2 -2 2
98 1 10.045403447614824 21.331111386400718 2.0308588488551744 0 0 -3
504 1 10.824695057449828 24.86564250681288 2.258654248733771 2 2 -1
801 1 14.279593795354407 22.101769661907113 0.21012606489573887 2 -5 1
270 1 15.546906101167696 21.017010491741456 2.365546344888172 -2 -2 4
369 1 15.485295256495299 24.235925446797506 2.6686980754549054 0 1 -5
432 1 18.82972221735999 23.084996718403552 4.474632604596237 2 -1 0
888 1 24.104335066409913 20.60433268581796 0.7984739174871323 -2 2 4
79 1 20.79073279733709 20.282666440684125 4.595822480957666 -2 3 0
915 1 21.230889014183695 22.10458668504414 2.4613143184706074 2 -6 -5
55 1 24.759309394722457 22.12877822846668 3.5245307691370154 0 1 0
666 1 26.60714500687611 23.954440309800166 0.8223043179698519 0 2 0
576 1 28.150235597954595 20.14630035242796 2.4779325363169176 -2 2 6
392 1 28.22045978330221 23.505592215823828 4.724674948601788 0 2 3
458 1 30.58359327993137 20.17020156875718 4.581084177461028 1 0 0
596 1 31.581518259330444 21.289798814259132 1.3875162790726412 -2 1 -5
325 1 32.00701007902508 24.46165593513329 3.3806168819873736 -2 -3 2
546 1 34.53291353703462 22.96840969163438 0.7265038821258241 -2 2 0
222 1 4.099639753673688 28.53478333494635 0.8655278085413671 3 2 5
286 1 2.1574194321200357 29.517725095147597 3.681012143881802 2 -1 0
132 1 1.3965310980559433 26.395578299046164 1.6504120420891533 -1 -2 2
356 1 7.376874070620775 27.537953323987328 2.601034198806996 1 1 5
840 1 5.626348264663629 29.655847289899928 4.1542713073370505 3 3 0
203 1 13.61071523131065 27.44042581779137 1.2314096063595927 3 1 -1
912 1 11.136285489448529 28.590885623553486 3.113622818945732 -1 -1 2
772 1 13.10629216426303 25.74602173004316 4.834933185162476 4 -2 -2
947 1 19.86274821821973 29.22068254032806 2.3980734515332514 -8 4 -2
649 1 17.01490513494172 29.56478045935768 1.9422726229882235 4 -3 0
1001 2 17.859359196680057 29.013979328798843 3.973049645541012 2 1 0
455 1 17.80672753766645 26.95508468181811 2.8885181724645714 0 -1 -1
80 1 20.928912146220043 25.451329122829332 3.3704061149977895 3 -1 0
257 1 23.844237042969816 26.584755047313312 1.5770419802793787 0 2 2
94 1 23.182677334283348 28.47580568172378 4.916029208668916 2 -2 -5
975 1 26.929134574561147 28.899954278466744 3.1677746544522103 -2 0 0
566 1 30.08876374688006 29.705521641061548 3.319671672376024 0 1 0
773 1 29.463930846503015 25.820839305226503 2.0005545691012774 -2 1 1
441 1 34.06638772672172 26.366918440474226 4.86957075879432 1 3 -1
406 1 32.81362760726404 28.05953723647893 1.560558418148693 4 4 5
457 1 5.019113977774958 32.9065688758794 3.752642228112494 -2 -3 1
882 1 3.5499748313030173 31.902189569272192 0.865000203817969 3 -5 -1
246 1 1.2777320282362274 34.894087024807064 2.0289835116329997 0 0 2
785 1 6.853992009751341 31.04162136073937 1.3988140092963333 0 0 -3
480 1 8.705155699182457 33.412545092906655 2.902282051998151 2 4 -1
502 1 6.204852475018661 34.927003269758124 0.18799967756762925 -4 1 2
853 1 11.52103711485325 34.49204310755838 4.8901907205958945 -2 1 -3
447 1 13.386576301749082 30.73528417758598 0.13869770318629152 -3 -1 0
437 1 14.685177769144971 30.416639626080926 4.234513087799169 5 2 3
535 1 11.513468583627004 32.16209840750711 2.887919100847773 1 1 0
987 1 15.538169773479797 33.526051634663524 1.9329539197543073 2 5 1
757 1 18.786051161916767 35.06756130411145 0.9420565457661739 0 -1 -2
229 1 18.53182977295095 31.824579266767017 0.4257639481681459 -2 -2 -1
984 1 24.35421644722983 34.82716203295554 2.584194739684871 5 -4 0
692 1 23.450841065335677 30.38027460650116 1.6581774472858808 1 -1 7
408 1 20.45851900833539 32.53696231995557 3.2363412964776215 1 -5 -3
938 1 27.753977212212597 34.12231810899893 2.2824891694990312 -1 -1 1
104 1 25.557689085219064 31.49279565911649 3.941766034437485 -2 1 5
263 1 29.501414184385638 32.267415736668774 4.879925201688298 0 -3 0
929 1 33.90148852048734 30.84861553886106 4.919976685988944 0 -3 2
271 1 34.70914485002403 31.0889783937658 1.2637767690622894 -5 -1 2
794 1 32.3689848402338 32.77208661120374 2.4093404314869913 -1 -2 3
756 1 1.080951272799132 4.280916002820406 6.3599601041024885 4 0 0
928 1 4.401623896105757 4.100440448648303 9.537668620069189 1 0 6
525 1 2.3350210782549174 0.9704101024745838 5.85264878058997 -4 0 2
858 1 6.025046002508244 1.1835859520797145 6.062743626597838 -3 4 2
491 1 7.223347589308482 0.9868078783480753 9.78949547465891 0 -3 6
641 1 8.134930960834886 4.375405055917141 6.296157173826667 5 -1 4
493 1 10.774969615104547 4.325338246201442 8.752366701336776 3 -4 -4
184 1 13.424428196702877 1.6832021631779492 9.364487589625412 -1 2 0
466 1 10.229350281085136 1.0262087193260006 8.156775089842682 2 -1 3
500 1 15.151616184869264 3.155672108454184 6.056846942479322 -1 -3 -2
289 1 18.95262331471355 3.85120991580307 5.946681173174702 -3 -3 0
866 1 16.977296521201033 4.860283465572169 9.43109432195135 3 -2 2
86 1 22.1514077800867 1.8589752384439011 7.9180085037582995 -1 -6 0
880 1 20.48318139708742 4.063232533070443 9.636931858175313 1 1 -1
579 1 24.47823748577234 0.13362245082635812 5.512953942028737 -3 -1 0
346 1 30.168231897600474 0.6052530636167347 6.241452770518308 -4 2 0
443 1 27.0373030270866 2.050490160163495 5.221753830053035 -1 1 4
32 1 27.903488601636518 2.6846006409007823 8.715843204656037 4 0 0
124 1 33.64578632732752 2.0849399980810164 6.533659256293159 -3 5 -4
224 1 30.86172212268879 2.780942404362546 9.932720800781775 1 7 1
867 1 31.12767528120031 4.424286248389407 7.287745161823826 1 0 4
131 1 4.786833122896127 5.527860700373638 5.915800693612861 -1 6 2
253 1 1.9045205661257403 7.774371844924783 8.122540012373062 3 2 3
389 1 3.936520133357188 9.305436880491536 6.1682271300894636 2 -3 -6
62 1 5.851849982519988 8.151084738097676 8.458216023745116 3 2 0
784 1 7.9191410565274145 10.017474722669986 5.478137340145532 2 4 -3
209 1 9.815592559245946 7.853784512704949 6.896292660717762 -1 1 9
570 1 13.996133459653237 5.806600128103485 7.890526091176203 -3 5 0
228 1 13.730680984834976 9.440096622186612 6.996787730146631 5 3 6
555 1 16.712283098238164 8.362971838171129 8.698496175416956 0 4 3
675 1 18.941798041236023 8.460843401229138 7.372720544586663 -2 -1 0
827 1 22.12897426400726 9.16077139164854 7.119112560017497 1 -2 -3
789 1 23.01565278873455 6.122613004556078 8.704451330635965 -3 2 4
770 1 22.103390388823087 5.540624034744253 5.865027872804196 1 -1 -1
244 1 25.772032686832205 5.111302838137751 7.4213396403577665 3 1 0
918 1 25.39507190353366 8.92977190087519 7.482817026238959 -2 5 2
339 1 30.761298749291154 7.725098259401723 5.627777600755985 1 0 -4
696 1 30.27629248291892 7.272003227925099 9.146514941447283 -1 2 -1
235 1 33.92739885638467 6.220488082866355 8.132042542580962 0 0 3
974 1 33.33437568966947 10.007458234691137 7.179250054174846 2 -2 2
187 1 1.1067512554371977 12.938545083574367 7.723461126003652 0 -5 3
878 1 3.2006247735846958 10.9757952665965 9.326255896930762 -1 3 -1
90 1 4.193188974306615 13.214364379540608 7.175221317103763 0 -1 -2
172 1 7.377281121088794 11.76295778610269 9.7490292588642 0 1 -1
510 1 7.740172007431675 14.43659294931716 7.512375639602137 6 1 0
877 1 10.645244114195796 11.374501432664195 6.495984080492924 3 4 2
42 1 11.844074156750231 14.195758216721622 7.71254246286951 -5 2 1
259 1 15.932994140918657 11.522638974510485 9.731365254642615 1 -1 2
13 1 16.11900541755412 12.072032322739878 6.665171368119679 -1 -2 -2
831 1 19.388365580195174 13.621110668757241 6.192460965671917 -1 1 5
711 1 19.85710269560888 12.034361693666884 9.621328671095558 3 2 3
311 1 25.106943296129014 12.784398634920123 5.868913721548605 -1 0 -1
262 1 23.201362160080155 11.72004462058465 8.47216547090592 2 -2 4
701 1 28.438732228715345 10.326432223321556 6.1707217267793375 -1 1 4
12 1 27.813538069807738 12.370904432069457 9.119935261906898 4 -3 0
412 1 31.017061247351215 13.002510735102558 6.55268535662969 1 3 -2
646 1 35.12474582633085 14.965126619596239 9.654443180371876 -2 -3 2
137 1 34.18606793951102 14.702443581995254 5.890984482418582 1 4 1
210 1 31.01754335456213 10.941084379345183 10.044295672038979 -5 -1 0
452 1 4.127789203612147 18.813062876522174 5.396620928769119 3 -2 0
176 1 1.3447516612560992 17.514570446203887 7.102351563532305 -2 -1 -1
906 1 4.839739209627328 15.97952409279952 8.50705822942394 -2 0 2
658 1 4.77698072591475 19.50712372773774 9.602378429198446 7 0 1
700 1 7.50715141504147 18.18948302884691 7.255718561798124 -3 2 -3
957 1 14.53699167682105 15.445262728552184 7.066070275169822 6 5 3
232 1 11.578118837096488 17.246368419200664 8.794004621471137 -1 -2 4
436 1 12.022657080469283 19.268221320841246 5.043650557253084 5 3 2
524 1 15.140270713746311 18.224132956744484 5.342006513107775 0 1 1
494 1 18.343509515827584 17.596198970910045 6.333715726741581 0 -1 1
35 1 15.227872363733809 18.38594090905093 9.22895361348394 1 -1 -3
411 1 19.03788827645254 19.615680733072317 10.042562694626026 2 2 0
619 1 17.40614030259004 15.594414937969418 9.38704858709986 2 -1 -1
935 1 20.547994251590115 15.96580633171145 8.908589134149958 4 0 -2
644 1 21.93090751562493 18.929078816532897 7.690341224295376 0 5 2
749 1 24.91600579623786 18.248296703495857 9.65961231576552 -4 0 -1
590 1 24.69172294928656 16.40261187942989 6.252749498203758 0 0 1
135 1 24.78722316968005 20.019667602357735 6.030629275109899 1 2 5
606 1 27.07357384003343 15.533402511475975 8.030073083340147 -2 1 -1
647 1 27.57197474104152 18.123977908901605 5.498685720583258 1 2 1
780 1 32.77627811602148 18.65363041348248 7.904860039025021 0 -1 -6
59 1 30.65413821861359 16.16989959405159 8.231060091131702 -1 3 1
624 1 1.2455984035319805 20.681884878622053 8.01018778877411 -3 -1 4
937 1 3.5452918141649663 22.366974767532884 5.9635492224823965 -1 2 1
320 1 4.874228880112183 23.007937121731626 8.9426894503324 0 1 2
280 1 7.640337484964225 21.13864401443125 5.831382194308199 -2 -1 1
549 1 7.781957229937746 21.186018093934937 9.519525524185308 -6 1 -2
909 1 7.748618614393119 24.644490846012705 9.409105545910837 -3 0 2
180 1 10.791010320773212 22.594140723255332 5.181198132232163 6 5 0
718 1 14.096208891315232 22.858207576397167 6.740588902202886 5 8 -1
472 1 11.29191539303494 20.560677365607543 8.24871214432997 0 1 0
355 1 14.76522569962104 21.659068362302662 9.816316348982523 3 -5 -8
863 1 17.19835319673996 20.7228651120065 6.293434920714712 2 5 1
958 1 18.05390659632299 24.547508556179114 7.432277599427719 -4 -3 2
516 1 20.38842255298682 22.419584915092504 7.420060220419616 -1 0 -3
81 1 24.947925312895332 23.370612120291515 8.11834069482012 -7 -2 -1
611 1 30.041118029963414 20.19973904360833 9.766367478374143 6 -2 0
256 1 34.986160307019674 24.51633564028598 8.399486635625477 1 -2 -3
820 1 32.215612936235864 22.17753177580215 7.22816313281127 1 -1 -2
730 1 30.343312547282732 23.77826839807155 9.507821424983891 1 -1 3
6 1 3.0105416340164135 25.454290647075425 8.089703204118912 2 2 -9
522 1 2.450259670008688 26.824617102253505 5.035787151009244 2 1 1
252 1 3.4883758898037533 29.858911458472967 7.85037604226884 3 -2 1
851 1 1.3814460224180665 28.019412274668177 9.752519344273024 4 -1 5
526 1 6.197206463731972 25.86527569000585 5.893533694785193 2 0 1
141 1 5.662685558155504 27.205237488054934 9.261947450019766 -2 -2 3
819 1 9.737772203884427 26.986323010218943 6.112671601857016 -1 -1 -1
886 1 7.13745391388618 29.70264068377875 7.827724994457044 0 3 -1
390 1 12.550937224263059 29.15052144153456 6.222696839379317 0 -4 6
326 1 10.066101248476732 28.673983333614984 9.154367385980274 3 1 -1
550 1 11.50570577480887 25.513387894388583 8.72148710803771 0 -5 -3
67 1 15.10164752903465 25.594542755888373 9.222115436363547 0 -4 3
207 1 16.66236293102853 28.02602775209125 5.80091323000234 0 0 -8
157 1 19.886866247383775 28.625542020685078 5.469799337724714 2 -1 1
633 1 22.29076763947583 25.52483204909414 7.5844651337454785 1 -5 -1
722 1 25.0391420749897 28.059124055492045 9.055739627739882 7 -2 6
118 1 21.45777951117349 28.672902585461603 9.140309815794964 6 -1 3
512 1 25.47321401800462 25.67142435699817 5.550551721865398 -2 -3 3
174 1 28.19523812288997 25.79898485419611 8.442701693996266 4 1 3
479 1 26.69135072187904 30.06376299753 6.66117561683041 -2 4 -7
904 1 28.44952846398322 28.985305451142434 9.53951808933875 -2 -1 2
456 1 29.14322902095365 26.462123492880217 5.0595992652996635 3 -2 5
634 1 34.67062566547513 29.756459338321644 7.542436156352011 4 -1 1
471 1 31.254235259707567 30.113632052829058 6.671326271726858 2 2 1
145 1 32.05453868318675 26.91352124975671 8.851241563714945 1 -1 2
949 1 4.509615738487309 34.09809965995727 8.866135841698608 0 0 -4
567 1 1.5942493176022066 31.99563191417325 9.612544720688975 -3 -5 -3
49 1 2.2879315194922527 32.71058665190104 6.027579453685603 3 0 -3
476 1 7.712701031480269 33.27589443737669 6.836828063083098 2 -1 -4
242 1 9.542562500255174 33.34486241805582 9.462605911067586 -2 -4 2
865 1 10.186934008881657 31.074801672891546 5.857109282859897 -4 2 3
769 1 13.204430197341745 32.532327688860256 6.889414344029274 2 -4 0
25 1 14.723578876143552 30.68366869155545 9.43979742429522 6 -1 -2
497 1 12.817034419129786 34.00592939534236 9.71797008074801 0 3 -3
793 1 15.560962500231708 34.519088348104454 5.545316488356591 -2 -7 3
670 1 17.607795714152065 31.056763815499 5.3772052014078255 1 -1 0
739 1 18.75201541559915 35.15647744529407 7.781550875245746 -2 -5 -2
201 1 15.90241943150373 34.55925057955848 9.380624578506385 3 0 1
297 1 21.094255874152303 33.06434459604095 7.928677394426604 2 3 -3
581 1 23.755610025192485 31.5753653070742 7.623915060886135 0 -8 1
19 1 27.202610695650446 33.7824419794531 7.321349507302957 1 -3 1
200 1 30.25370147941543 34.0502150749554 8.47255743698911 2 -8 3
734 1 33.795755520268685 33.58078945571027 5.489160859105504 -2 1 -3
407 1 33.602169992693085 33.62697004554914 9.750018265122558 -4 3 -2
687 1 1.4743277824528687 4.796431921727413 10.451805391194787 2 -3 -2
213 1 1.7300647054012583 2.3351275565782306 13.382581687073182 -2 2 4
179 1 5.164338141602949 3.869354294254982 13.176673224176655 2 0 1
230 1 5.1710847243829905 0.3378501337595522 13.531086262603763 -7 -2 0
61 1 8.228317004741053 0.7542060405500703 13.705976471167284 2 1 -1
951 1 8.54705355059454 4.053097981290313 14.339524668146476 3 2 -3
639 1 11.68462857588864 3.3043514472156974 12.800073730018031 -3 -1 0
894 1 13.726368991868917 0.7790854015076802 14.51975598171743 -1 2 1
18 1 16.617031518475702 3.025432319075782 12.501744261912613 1 0 -2
715 1 19.400309132251905 1.5733721143263426 13.381610955007583 3 2 0
798 1 24.771395903064633 3.3148043933436875 11.26881020502477 -5 -2 3
264 1 24.604489971744666 0.5015492665977711 13.074505190071697 4 2 3
963 1 22.27611803553742 2.953742100998885 14.570329437533935 0 0 -1
841 1 27.758101425423707 1.7103316310613887 12.56160557435912 0 0 1
17 1 34.00465485927219 2.279927334719921 10.44694802849597 1 6 0
903 1 32.39972293749894 3.493945949511117 13.677501029311134 4 -3 -2
616 1 1.963411139198177 7.603649135071411 11.704283043537643 3 -2 -3
719 1 3.4257123564251075 6.6178953070810485 14.533172780846039 -3 1 2
123 1 7.97345732606993 5.278091903198057 10.265340634232185 2 1 -4
740 1 7.301092692984845 7.570038118809638 14.616518766743784 -5 -6 -1
944 1 8.756805934618065 8.50497760500035 10.936269907739852 -5 4 1
514 1 5.054626322478691 9.938762236707321 11.831460294969235 0 0 2
318 1 11.85725048866055 7.847271852923637 10.853924380083384 1 -1 -1
883 1 10.75056647630162 6.58492868150771 13.549100279490805 -6 -1 -2
999 1 11.001578284808195 9.956639951284757 14.158172668069918 -1 -4 8
439 1 14.899119459028446 7.646023119804004 11.572127098754299 0 0 0
92 1 15.129425080175707 10.061643465767338 14.167285735316 -3 2 3
290 1 19.66007859894321 8.545635325520276 10.880363426020965 2 2 5
893 1 16.612935507886277 6.084312911925326 13.914163431265976 2 2 1
395 1 20.577369299312963 5.390982316955095 13.759554580747857 5 -1 -5
276 1 23.09506318418524 6.347668974694649 12.104669093616861 -1 -6 -4
543 1 23.608240684083007 9.79664987941318 12.379686069738185 -2 -5 -1
463 1 26.877887150062023 8.907096627190512 10.52077786235254 -1 5 -4
150 1 26.39495741205283 7.762148601900367 14.135317616824263 -7 0 -7
314 1 27.34712181370584 5.422939733860116 12.2489787006655 1 -7 4
961 1 29.221097771572552 8.871748529827887 12.725266079742672 5 0 0
551 1 33.40061421393737 6.238642692130806 11.297718754012132 -1 3 -2
660 1 35.11634994956469 5.349920423373158 13.788626835403456 5 -1 -3
933 1 33.66865463967106 8.059699996573581 14.27457737882269 -6 -6 4
702 1 1.391054654061252 10.268906006134845 13.276806449285528 3 0 1
881 1 2.8851314125851837 13.21910101626906 11.417059931044657 -1 2 -1
667 1 3.847197787800934 13.68528353923969 14.709904704334969 1 2 5
307 1 8.086169284519467 11.194680768406759 13.159172287133604 3 1 -2
838 1 5.694581742896007 14.4294863294581 11.314896982679311 -3 -3 -2
63 1 11.121862831451523 10.701281914477311 10.441425180438296 -6 3 -2
561 1 12.852350909819751 12.99906724934419 12.680534781936021 0 1 7
126 1 17.744582756363855 11.880648807584226 12.021959274927879 -1 6 0
744 1 21.447424959224087 11.717843036986487 13.978483540292666 -1 4 -1
461 1 23.168775657492866 13.309851987674138 11.243504446748789 0 -1 -2
388 1 26.915372028656854 11.806421507025645 12.791427104860585 0 2 4
153 1 29.503784505482653 13.92422785515219 11.116732573708413 -3 4 -3
444 1 27.460775551343897 14.878161515502422 14.316914526261804 1 -2 1
474 1 32.44623043571987 13.551381487455556 10.232712763202311 1 -4 2
367 1 34.58993867826533 13.92910286769305 13.545207834202989 -3 3 1
911 1 34.708246415519135 10.995398073967587 10.434836278865653 -3 3 -1
921 1 31.84884624670921 12.09402777062492 13.174410444342524 3 2 -3
813 1 2.3697369752186095 16.600425610462775 11.244266086953495 2 1 2
953 1 2.7083383028617423 20.010959996091742 12.489098749486296 2 0 -5
22 1 5.458399956259215 17.24559863716781 13.757460672024775 0 -3 0
844 1 9.199229194326946 15.231033897963547 13.960038645885811 -5 1 -2
58 1 8.041673154832942 17.793961443375313 10.714326729597946 2 2 2
586 1 9.812016938622575 18.720285067750584 13.677169904997966 -5 -2 2
981 1 10.711290173621947 15.113228809185467 11.379195322550729 -4 -1 7
105 1 14.234993734549418 15.780163483750766 10.960727494406356 -1 -5 -2
631 1 12.606477920012368 16.20846322636394 14.141569340012046 0 -2 -1
287 1 15.887055701749686 15.353272831270452 14.521007792398443 3 4 3
21 1 18.716394903416674 17.345823263630518 12.626597653279887 -1 5 3
654 1 15.537447847710325 19.225782269027754 13.849227556337725 1 1 -3
659 1 22.237035425025923 16.182719091691805 12.320206637725725 5 1 0
438 1 22.185676369199605 19.62777642621952 13.701193048775743 -4 3 4
532 1 25.68707840682444 15.26251211744408 11.134098148724595 1 -3 -3
281 1 28.11535348146864 17.910635875533263 11.24178972946347 1 4 -6
864 1 25.701547197162892 18.542694939248307 13.705243849151744 4 3 0
14 1 33.83029380711447 17.83668967102311 13.625160225398654 4 -1 1
985 1 31.181787274552818 15.226057366608414 14.105259636661854 4 7 1
258 1 31.54469579137262 17.659939750679094 11.585724897819514 -4 2 1
243 1 0.5458602207247311 23.68732453941826 11.622678660597261 2 5 -1
140 1 3.4248071350438165 22.46675359900609 14.794978391933356 -1 1 -2
156 1 7.137547749358962 20.39256409447226 12.750151706138288 2 -1 -2
360 1 6.102603486327769 23.493248316103337 11.953994592415407 -2 0 1
269 1 9.800217822491575 24.509268200824067 14.592615760687854 -1 1 -2
943 1 12.76879579606411 20.299388505562607 11.951307677885483 2 1 3
154 1 10.269999692414473 23.17813084971454 11.726428099254287 -1 4 0
934 1 14.982001432385244 23.2854098141842 14.034758817720288 -6 -4 0
600 1 11.703303780521537 21.49491874172475 14.919968009234081 -3 5 -2
151 1 19.887486549580135 22.899535671795558 10.669008440607612 2 2 2
533 1 16.934359945468206 21.166988068331204 12.218944902731137 -2 1 -1
430 1 23.23728324597516 21.33108848247565 10.135677397534518 0 1 -2
361 1 24.809409329080303 22.509444835924793 14.540961293108694 6 2 -1
398 1 22.551950976377633 24.27339059098131 13.927697691893776 -1 -1 0
56 1 26.227712253831744 21.409304240497647 10.978450903361532 -2 -3 0
795 1 30.167794598623058 22.55459352713096 13.34191625569473 2 2 1
343 1 27.360714523330547 25.020104267770666 11.44538536978492 -2 2 -1
310 1 34.98185291554376 21.471372385726905 14.991565592157352 -1 3 0
324 1 33.4874778352286 20.714224549773377 11.491310895476476 0 -2 3
30 1 32.75464906145151 24.190797771871615 13.492903441688027 -4 -2 -4
661 1 3.5453538586870548 29.517265751477684 12.8833880054967 0 0 7
330 1 3.800993046246348 26.257995327596444 12.369087712936352 2 -2 -3
910 1 7.827431979999978 27.78974156876153 11.433394703098822 5 1 4
265 1 6.636509054307216 25.878865097670815 15.05894738009336 4 -3 5
248 1 6.826316752004699 29.23139721504745 14.52091901747096 2 -3 1
31 1 11.748404698961128 26.49721948972188 13.036246387959707 2 -1 -2
577 1 13.617470857900065 28.107490842182347 10.464346915606267 1 3 6
468 1 13.746784046151083 28.846801537709258 14.428148390290016 -3 4 0
352 1 17.637979084022472 28.703193221475548 10.176419014518679 1 0 0
717 1 16.466193540609446 25.831430733735285 12.148123528781806 1 0 1
473 1 18.53741024010935 29.522172572528916 14.039577473930178 2 0 1
855 1 19.512786014286718 25.895503665031786 11.985292493267817 -3 -1 0
404 1 23.682640565523457 25.33854172613352 10.689811846801154 3 -1 2
282 1 21.748766851795185 28.525636721426352 14.344320766802653 6 -1 5
498 1 24.52628019918536 29.724862251405757 14.944171269783077 -4 -5 7
897 1 25.932810922244215 25.825589586726963 14.433554836826916 -1 -3 -2
852 1 25.338202490535373 28.023762121904326 12.326765498060434 5 3 -3
584 1 29.435630009838185 25.745890144516007 13.38867310388458 -2 -1 -1
315 1 34.783054767016914 27.16817077695746 14.457804774882785 -1 -3 -3
460 1 31.863159205796897 28.804336141263928 13.41549684774574 1 -2 -4
650 1 3.5349540428861164 33.427986671993175 12.197775765648132 -4 1 -4
279 1 0.016205137293226812 31.47502702289466 13.364919963450067 6 0 -1
440 1 4.770203920946186 31.63822463582769 15.067098948328615 -1 1 -1
139 1 9.992252760832436 30.430854738771863 12.491505174634268 -2 -3 1
608 1 6.518806454691358 31.026462747618535 11.083928002099778 1 -5 0
164 1 7.966407304593999 32.47717370902803 14.474947198425486 -2 -2 1
875 1 10.577478887840169 34.55838189369856 12.648522575237047 4 3 -3
501 1 13.144547472998209 32.29447081261336 12.968105732050738 1 -2 -2
78 1 15.810121277579405 31.23770811624757 12.757614285412814 -2 -2 2
345 1 19.52637496707582 32.86957189454803 14.456038124759164 1 1 3
679 1 17.254992428493537 34.391682665943286 12.30325784926597 0 -7 -2
374 1 19.028184027940952 32.08407110251714 10.560055143272336 -1 -6 1
713 1 23.464842720866084 34.032631165051654 10.804966634021378 -1 1 4
313 1 22.83421455036663 30.668779220306092 12.246051805730348 1 -7 4
607 1 26.736958738333048 34.02907054661614 10.7032855747015 -6 0 3
765 1 25.96636803592727 31.08628633039346 10.499437825033917 1 3 8
553 1 28.33631400597085 30.552145720821944 12.800862373765755 1 -2 -1
656 1 25.899806951715966 32.729285007034306 14.208005514744679 -3 4 2
652 1 33.12241042752496 30.200932185515065 10.833025598495322 3 4 2
873 1 30.802506723160793 34.74001788539616 12.321871035074938 -2 -3 5
142 1 30.408419014434553 31.807833858961306 11.147873427189458 -3 1 0
891 1 31.756554278531762 32.41717447207793 14.600056386426026 2 0 0
686 1 34.595616825869406 35.214824534708065 13.978288851582061 0 0 -2
808 1 3.369755956551986 3.2690299318724105 16.388224737399707 -2 -2 4
983 1 2.1486852486323524 2.6685316050881736 19.61678325389295 1 -3 4
508 1 0.1679047416885951 2.983328272868237 16.172233759739743 2 -5 3
653 1 6.475335906803212 2.020369056192538 18.007275425537806 1 1 0
651 1 9.318839475556224 2.8685531151220522 19.348740052280817 2 -2 -3
737 1 12.122135843645012 2.5967159508929747 16.340523899389094 -3 -1 -3
1002 3 14.48110740974163 4.755499080360752 16.20616573551375 -4 -2 6
759 1 15.785975977301627 3.117593667270565 16.791846005145782 -4 -3 -2