(written by ASE)

4002 atoms
4 atom types

0.0      49.420951458516512  xlo xhi
0.0      49.420951458516512  ylo yhi
0.0      49.420951458516512  zlo zhi

Atoms # atomic

     1   1      11.012600000000001      22.849599999999999      35.786700000000003
     2   1      19.691800000000001      34.978499999999997      7.4816599999999998
     3   1      4.3409899999999997      43.219000000000001      14.137600000000001
     4   1                 44.7318      21.786799999999999                 19.7027
     5   1      22.449300000000001                 12.1907      22.967199999999998
     6   1                   10.43      4.5778999999999996                 2.11002
     7   1                 11.7316      21.563700000000001      2.9604300000000001
     8   1      26.808599999999998      21.651800000000001      8.0952599999999997
     9   1      35.704700000000003      28.482099999999999                 23.2666
    10   1      48.548400000000001      19.866900000000001      16.694400000000002
    11   1      24.177199999999999      38.784100000000002      28.740100000000002
    12   1      14.849600000000001      15.087300000000001      12.132300000000001
    13   1      36.665700000000001      33.893500000000003      32.697499999999998
    14   1                 36.3996                 1.23177      41.413899999999998
    15   1      25.008800000000001      38.853299999999997      42.319899999999997
    16   1      32.008299999999998      42.968699999999998      37.235599999999998
    17   1      45.071399999999997      3.0681600000000002      17.329699999999999
    18   1      7.8964499999999997      24.189599999999999      9.4088499999999993
    19   1      2.0348199999999999      24.732299999999999                 30.9086
    20   1                 37.9163                 33.7211                 14.1587
    21   1      22.628399999999999      20.570699999999999      45.457799999999999
    22   1      23.388999999999999      21.154199999999999                 13.2111
    23   1                 7.44102                 18.2973      8.6604700000000001
    24   1      3.3548800000000001                 26.6356      34.263800000000003
    25   1                 33.4392      3.0217800000000001      29.466899999999999
    26   1                 19.3551      20.860199999999999                 10.7607
    27   1      30.989899999999999      36.397199999999998      6.4503000000000004
    28   1      41.897300000000001      8.2846100000000007      19.869399999999999
    29   1      31.261199999999999      21.065799999999999      23.630700000000001
    30   1     0.44603799999999999      16.100100000000001                 34.6389
    31   1                  45.009      33.114100000000001      21.235700000000001
    32   1                 24.4589      28.034400000000002      20.019200000000001
    33   1      42.506100000000004                 46.3643                 22.8781
    34   1      11.204599999999999      36.610199999999999      6.7585199999999999
    35   1      32.028199999999998      11.886900000000001      47.982199999999999
    36   1      2.8522500000000002      17.710999999999999      22.791699999999999
    37   1                 13.6356                 12.9018      7.4878499999999999
    38   1      2.6255299999999999                 33.7517      17.613299999999999
    39   1      29.107700000000001                 11.2926      4.5203199999999999
    40   1      43.891500000000001      48.988100000000003      35.748899999999999
    41   1                   28.23      10.908300000000001      7.4173600000000004
    42   1      32.146599999999999      24.799700000000001      48.418900000000001
    43   1      36.429200000000002      44.288899999999998     0.94165100000000002
    44   1      40.913899999999998      41.677799999999998      20.429600000000001
    45   1      47.708300000000001      6.4615600000000004      12.045500000000001
    46   1      3.4944700000000002      32.351999999999997      34.491799999999998
    47   1     0.51309899999999997      8.5563599999999997                 13.3032
    48   1                 25.8978                 18.3917      40.696199999999997
    49   1      30.678699999999999      1.8063199999999999      39.199100000000001
    50   1      32.615200000000002      7.9144300000000003      3.2118899999999999
    51   1      38.764699999999998      48.191899999999997      30.083400000000001
    52   1      34.296900000000001                 20.1601      5.9043700000000001
    53   1      40.189100000000003      8.5944000000000003     0.61119699999999999
    54   1                 31.4405      28.620100000000001      33.501199999999997
    55   1      37.158700000000003      7.5143700000000004                 12.3758
    56   1      34.930500000000002      34.339399999999998      4.1240399999999999
    57   1                 47.2239      19.998000000000001      19.415199999999999
    58   1                  19.125      16.550799999999999      18.054300000000001
    59   1      4.0302600000000002      3.0321400000000001                 22.6493
    60   1      15.819800000000001      45.154499999999999      12.231400000000001
    61   1                 34.3855      23.793399999999998                 12.9328
    62   1      16.632400000000001      24.007000000000001      10.133599999999999
    63   1      34.968600000000002      19.866800000000001                  15.988
    64   1      10.863799999999999      32.771700000000003      46.608499999999999
    65   1      27.374500000000001                  38.695      32.428600000000003
    66   1      23.696899999999999      48.196899999999999                 11.4443
    67   1                 31.5124                 43.1877      6.8548999999999998
    68   1      17.353999999999999      33.099899999999998      45.691000000000003
    69   1      40.130299999999998     0.49614799999999998      21.153600000000001
    70   1      19.807700000000001                 21.2197      27.558800000000002
    71   1                 14.5733      24.025500000000001      2.7924699999999998
    72   1                 14.5542                 28.0425                 34.1021
    73   1      21.563800000000001      26.465699999999998                 24.0215
    74   1      35.908099999999997                 41.1235      22.421500000000002
    75   1      2.3291900000000001      37.482900000000001      34.610900000000001
    76   1      39.207299999999996                  16.448      1.7550600000000001
    77   1                 15.7834                 43.3401     0.42702200000000001
    78   1      28.245899999999999                 15.4832      45.458599999999997
    79   1      26.247699999999998      6.3717899999999998      10.186199999999999
    80   1      41.540399999999998      18.440999999999999      42.236699999999999
    81   1     0.19583600000000001      17.842700000000001      32.475099999999998
    82   1      17.988499999999998      23.358499999999999                 32.6858
    83   1      37.449100000000001      48.101700000000001      25.428899999999999
    84   1      33.264499999999998      30.277899999999999     0.78165300000000004
    85   1      6.2951100000000002                 47.9617      26.756799999999998
    86   1      1.8923700000000001      22.482600000000001      42.847099999999998
    87   1                 6.13802      16.299700000000001      33.793599999999998
    88   1      5.2049000000000003                 35.5642                 24.9815
    89   1     0.46216499999999999      24.371300000000002      19.838200000000001
    90   1    0.092638999999999999      36.457500000000003      32.500799999999998
    91   1                 39.5959      23.358499999999999      13.600899999999999
    92   1                 32.6297      8.5683199999999999                 29.3706
    93   1     0.34018300000000001      27.993600000000001      41.050899999999999
    94   1      24.754799999999999      47.222099999999998      44.947600000000001
    95   1      8.1922099999999993      22.229500000000002      11.263299999999999
    96   1      47.910600000000002      17.470199999999998      6.8822400000000004
    97   1                 10.1571      47.036900000000003      45.670099999999998
    98   1      30.782800000000002      24.815200000000001      28.942699999999999
    99   1      5.6258400000000002      35.209899999999998      4.7844100000000003
   100   1                  10.259      19.028300000000002      7.8531700000000004
   101   1      6.8700400000000004      46.462200000000003      32.942599999999999
   102   1      35.803100000000001      40.049100000000003      7.3133100000000004
   103   1      28.405799999999999      37.534799999999997      23.870100000000001
   104   1      13.888299999999999                 15.0511      9.3074100000000008
   105   1                  37.241      42.961599999999997      8.3899799999999995
   106   1      4.1783799999999998                  36.622      40.761200000000002
   107   1      44.433799999999998                 30.2669                 37.7699
   108   1                 21.2852      9.0864799999999999                 38.0974
   109   1      6.8329300000000002      34.563000000000002      20.732099999999999
   110   1      7.9109999999999996      26.812200000000001      23.622900000000001
   111   1                 13.0793      1.4588300000000001      29.938800000000001
   112   1      49.136200000000002                 1.67842      17.434999999999999
   113   1                 3.68472      12.228999999999999      28.222000000000001
   114   1                  16.942      1.5451999999999999      33.333199999999998
   115   1                 31.1402      39.912500000000001                 11.9406
   116   1                 43.1556      22.661000000000001      38.857300000000002
   117   1      18.233799999999999      7.6079400000000001      17.736499999999999
   118   1      5.6216699999999999      1.8238099999999999      7.3642799999999999
   119   1      20.586300000000001      18.596599999999999                 17.5885
   120   1                 46.1965      13.288399999999999     0.16558700000000001
   121   1      5.5044700000000004      36.598799999999997      49.098399999999998
   122   1      19.153600000000001                 24.1768      20.031300000000002
   123   1      22.907800000000002                 32.7973                 23.7836
   124   1      48.559100000000001      41.982999999999997      27.598800000000001
   125   1      27.715499999999999      41.076900000000002                 17.6799
   126   1                  21.837      40.278700000000001      38.021099999999997
   127   1      24.501999999999999                 14.5343                 17.6968
   128   1                 17.3443      10.797499999999999      45.166400000000003
   129   1      5.1752900000000004      34.107300000000002      22.619399999999999
   130   1      34.940899999999999      43.115499999999997                 6.65951
   131   1      4.7042400000000004      37.648099999999999      3.4296899999999999
   132   1      37.221200000000003      36.608600000000003      25.810199999999998
   133   1                  20.933      29.533000000000001      37.004800000000003
   134   1      28.680900000000001      5.9070900000000002      22.866700000000002
   135   1      6.7318199999999999      24.518899999999999      31.122399999999999
   136   1      5.5410399999999997      18.661799999999999      22.432300000000001
   137   1      22.641100000000002                 29.8658      25.042899999999999
   138   1      40.352899999999998      3.4895900000000002                 13.6805
   139   1      16.057200000000002      5.9288299999999996      42.951099999999997
   140   1      20.826899999999998      15.358000000000001                 31.6447
   141   1                 1.94665      9.4336900000000004      28.812100000000001
   142   1                 49.0901      38.828600000000002      31.168299999999999
   143   1                 5.43161                 19.2408      34.583799999999997
   144   1                 41.6282                 14.3886      34.891599999999997
   145   1      40.271999999999998      45.192300000000003      32.463299999999997
   146   1      36.264600000000002                 21.8628      18.095400000000001
   147   1      39.092300000000002      43.852699999999999      10.432700000000001
   148   1      35.014600000000002      17.287800000000001      47.287199999999999
   149   1      42.875500000000002      31.006799999999998      40.520000000000003
   150   1      21.309699999999999      39.260599999999997      28.645499999999998
   151   1      12.785600000000001      20.090699999999998      9.0783299999999993
   152   1      28.536100000000001      7.0449900000000003      40.502800000000001
   153   1      47.136400000000002      26.198499999999999      21.007000000000001
   154   1      32.466299999999997                 18.4589      21.261099999999999
   155   1      34.688099999999999      48.653799999999997      37.391100000000002
   156   1      40.633899999999997      1.0740000000000001      27.847899999999999
   157   1      7.0143700000000004      45.112699999999997      28.445399999999999
   158   1      42.903399999999998                  46.756      2.8973200000000001
   159   1                 47.4664      19.487500000000001     0.86045300000000002
   160   1      28.619800000000001      13.632300000000001      14.968400000000001
   161   1      30.707799999999999                 29.0671      19.089700000000001
   162   1      33.188899999999997      42.213999999999999      13.099500000000001
   163   1      21.813500000000001      35.274700000000003      24.045000000000002
   164   1      26.344000000000001      47.805900000000001      34.196399999999997
   165   1      1.0714699999999999      16.168500000000002      13.594200000000001
   166   1      9.5090900000000005      14.871600000000001                 1.31656
   167   1      40.458599999999997      45.999899999999997      25.250399999999999
   168   1      43.499299999999998                 39.4039      19.311499999999999
   169   1      41.095199999999998      5.3994900000000001      5.6653700000000002
   170   1                  22.262                 25.4559      46.834400000000002
   171   1      47.500799999999998      6.5371899999999998      39.204599999999999
   172   1      47.372599999999998                 38.0548      49.659199999999998
   173   1      41.058700000000002                 21.5809      23.595099999999999
   174   1      19.907399999999999      8.5066100000000002      34.490600000000001
   175   1      36.706000000000003      34.052100000000003      7.6759399999999998
   176   1                  13.952      48.451900000000002      36.775500000000001
   177   1                 36.8444      1.9757400000000001      27.920200000000001
   178   1      19.133299999999998      43.302500000000002      7.8414799999999998
   179   1     0.54610700000000001      36.378100000000003      1.3600300000000001
   180   1      20.830100000000002      8.5926399999999994      16.203700000000001
   181   1      3.4130400000000001      40.172899999999998                 30.1815
   182   1      36.160200000000003      48.473300000000002      31.617899999999999
   183   1      47.455800000000004                 39.0961      28.632200000000001
   184   1      48.482700000000001                 2.69529                 20.5045
   185   1      37.777299999999997      7.6324899999999998      9.2929399999999998
   186   1      24.104900000000001      6.0656100000000004      19.402799999999999
   187   1      41.917700000000004      4.5808499999999999      26.482299999999999
   188   1      45.829500000000003      23.643899999999999      8.2902500000000003
   189   1      9.1567500000000006      48.030700000000003                 31.9468
   190   1      48.226900000000001                 26.7622      12.146000000000001
   191   1      38.275500000000001      38.892200000000003      35.618099999999998
   192   1      34.834800000000001      2.3468300000000002      23.976600000000001
   193   1      12.385899999999999      21.569400000000002      6.1130399999999998
   194   1                 12.2277                 38.8947      16.520099999999999
   195   1      43.964399999999998      3.7401800000000001      33.060299999999998
   196   1      14.327299999999999      43.116900000000001      37.706200000000003
   197   1      15.427099999999999      43.820599999999999      46.893500000000003
   198   1                 27.2212      33.390000000000001      29.987300000000001
   199   1      47.717599999999997      48.253100000000003                 23.2288
   200   1      13.160500000000001                 10.4162      33.943800000000003
   201   1      25.520600000000002      8.2836200000000009      19.125599999999999
   202   1      43.423099999999998      5.8006599999999997      7.0297900000000002
   203   1                0.359987                 14.2607      11.192399999999999
   204   1      31.665299999999998      11.720700000000001      3.7424599999999999
   205   1      7.8945800000000004      9.4849200000000007      30.215599999999998
   206   1                 23.1372      20.350899999999999      30.546399999999998
   207   1      9.6685499999999998                 32.2652      3.3212299999999999
   208   1      45.270200000000003      44.268599999999999                 30.3675
   209   1      37.264899999999997      3.6002399999999999      5.2414300000000003
   210   1      18.703600000000002      49.250599999999999                 1.74298
   211   1                 47.6629      20.597999999999999      8.0919799999999995
   212   1                 31.3172      43.370100000000001      40.092100000000002
   213   1                0.594329                 26.5122      21.573599999999999
   214   1                 15.6556                 10.6708      2.0569299999999999
   215   1      32.737900000000003                 21.7149      42.649900000000002
   216   1      16.266300000000001      29.880299999999998      14.345000000000001
   217   1      16.221800000000002      17.552900000000001      7.3919600000000001
   218   1      31.473199999999999      19.387799999999999      42.666800000000002
   219   1      15.461600000000001      40.473999999999997      28.506900000000002
   220   1      9.7353299999999994      24.607800000000001      33.274700000000003
   221   1      39.046399999999998      33.178800000000003                 48.4848
   222   1                 39.3414                 1.97082                 44.0989
   223   1                 18.8767      8.2161500000000007      5.6908099999999999
   224   1                 13.5624                 29.7013      1.0310999999999999
   225   1     0.80781700000000001      39.177100000000003      27.486799999999999
   226   1      8.4410500000000006                 26.2014      25.924600000000002
   227   1                 19.9709      28.282800000000002      45.491900000000001
   228   1      35.063699999999997      32.198300000000003                 15.0497
   229   1      1.8083899999999999      10.890000000000001      48.439700000000002
   230   1      4.7415700000000003      37.625399999999999      28.579000000000001
   231   1      33.980600000000003      11.277799999999999      44.586100000000002
   232   1      24.133600000000001      34.943199999999997      31.177900000000001
   233   1                 25.8874                 15.1134      15.661799999999999
   234   1     0.90549900000000005      45.569699999999997      31.226500000000001
   235   1      36.475900000000003      6.6981200000000003                 16.2804
   236   1      39.549500000000002      17.646000000000001      39.068300000000001
   237   1                 10.9474      2.2208299999999999      35.876899999999999
   238   1      27.034099999999999      3.9932599999999998      42.316499999999998
   239   1      28.652999999999999      30.203900000000001      32.795999999999999
   240   1      30.241399999999999      9.6404499999999995                 2.07355
   241   1                 17.3963   -0.025611399999999999      4.7076500000000001
   242   1      41.871299999999998      37.899900000000002                 11.7818
   243   1                 21.7805                0.990707      27.068300000000001
   244   1      36.908999999999999                 19.6553      46.546799999999998
   245   1      48.375599999999999      7.2242800000000003                  6.6753
   246   1      46.426200000000001      17.232099999999999      34.713700000000003
   247   1      16.994399999999999      3.3587699999999998      6.2439200000000001
   248   1      1.6052200000000001                 42.6479      34.052999999999997
   249   1      15.272500000000001      45.914499999999997      49.241700000000002
   250   1      3.8734799999999998      20.271000000000001                 40.4422
   251   1      6.4917699999999998      30.796299999999999      16.895900000000001
   252   1      47.200200000000002      8.3790300000000002      17.837900000000001
   253   1      18.071999999999999      5.8387799999999999                 14.4156
   254   1     0.75526199999999999      21.894400000000001      35.481200000000001
   255   1      22.846299999999999      40.797499999999999      21.681699999999999
   256   1      37.075400000000002      23.704999999999998      43.944699999999997
   257   1      30.980699999999999                 33.1173                 10.9053
   258   1      42.118000000000002      22.854800000000001      21.381399999999999
   259   1      39.191200000000002      9.6475899999999992      3.0649299999999999
   260   1      6.4249799999999997                 4.53057      37.521000000000001
   261   1                 15.3992      28.689599999999999                 12.6122
   262   1      4.6568800000000001      48.440800000000003      13.145300000000001
   263   1      35.105499999999999      38.446100000000001      4.6111899999999997
   264   1                 1.43286      19.101600000000001      41.537500000000001
   265   1      39.685000000000002      3.7076600000000002                 41.4617
   266   1      41.071599999999997      7.6850500000000004                 26.9786
   267   1      33.498399999999997      40.320300000000003      24.259399999999999
   268   1      48.973999999999997                 16.4544                 39.9602
   269   1      16.524999999999999      5.0993300000000001      12.075699999999999
   270   1      39.878599999999999                 1.00145                0.233157
   271   1      15.635999999999999      4.6514499999999996      14.908200000000001
   272   1      48.577199999999998      4.7709799999999998      4.6608799999999997
   273   1      46.991799999999998                 26.0108      42.595599999999997
   274   1      15.136699999999999                 14.0542      2.8654899999999999
   275   1      26.715800000000002      14.034700000000001      1.1853199999999999
   276   1                 20.6845      48.838900000000002      4.2691999999999997
   277   1      19.832799999999999      40.681899999999999      30.204999999999998
   278   1      42.500799999999998      35.930599999999998      9.1666100000000004
   279   1      35.815199999999997                 3.50292                 32.4236
   280   1      25.496500000000001      15.477499999999999      47.031300000000002
   281   1      47.329999999999998      19.741199999999999      4.9911199999999996
   282   1      19.553899999999999      18.174600000000002                 26.6648
   283   1      41.335599999999999                 27.9666      26.827500000000001
   284   1      37.761200000000002                 43.2866      21.094200000000001
   285   1      46.745100000000001      43.254300000000001      19.392099999999999
   286   1      37.691800000000001      39.812800000000003                 25.4968
   287   1      34.258600000000001      22.656600000000001      44.913200000000003
   288   1      35.147500000000001      39.054099999999998                 30.0959
   289   1      16.343900000000001      45.412599999999998      2.8779699999999999
   290   1      48.560699999999997                  25.948                 45.4071
   291   1      15.821899999999999      10.577199999999999                 32.1295
   292   1                  19.709      18.376999999999999                 15.2523
   293   1                  20.855      8.2447999999999997      9.6431500000000003
   294   1                 18.9574      35.157400000000003                 23.3325
   295   1      34.467599999999997                 43.7547      23.301600000000001
   296   1      22.766100000000002      44.607599999999998                 45.2699
   297   1      31.207599999999999                 7.26966      20.694400000000002
   298   1      15.361499999999999                 13.6907      32.241300000000003
   299   1      20.831700000000001      32.738500000000002      21.530200000000001
   300   1      46.908900000000003      45.463200000000001      26.192599999999999
   301   1      5.0310300000000003      48.486699999999999      35.245800000000003
   302   1                 17.6401                 11.1403                 34.7376
   303   1      35.192100000000003      8.5646599999999999                 14.1257
   304   1      27.741099999999999                 21.0243      4.6821099999999998
   305   1      19.484500000000001      23.228100000000001      16.166799999999999
   306   1      7.4976900000000004      47.772799999999997      29.510400000000001
   307   1      24.261399999999998                 1.79138                 27.4895
   308   1                 7.40639      36.671500000000002                 40.7012
   309   1      41.256100000000004      30.892299999999999                 43.7654
   310   1      40.013399999999997      40.130600000000001      26.198499999999999
   311   1      21.658300000000001                 48.9343      9.4699600000000004
   312   1                 8.91629      34.648200000000003      35.555199999999999
   313   1      45.143900000000002      48.228099999999998      22.845600000000001
   314   1      23.227399999999999      32.444400000000002      46.500300000000003
   315   1      39.666800000000002      45.573399999999999      28.846399999999999
   316   1      28.007200000000001      41.349699999999999      44.068100000000001
   317   1      39.342300000000002                 16.8124      45.191600000000001
   318   1                 1.64554      40.024700000000003      32.680300000000003
   319   1                 19.2196      26.500699999999998                 18.4848
   320   1      19.797799999999999                 8.97532      44.291699999999999
321 2 27.799199999999999 20.8093 18.0641
322 2 42.083399999999997 4.9520799999999996 19.3613
323 2 36.058700000000002 10.3279 9.6073400000000007
324 2 31.544799999999999 41.974200000000003 42.977400000000003
325 2 18.6709 23.756 13.0146
326 2 9.8929500000000008 0.53934300000000002 17.1736
327 2 44.043399999999998 34.234000000000002 26.169599999999999
328 2 14.829000000000001 14.4497 36.325200000000002
329 2 13.2211 11.124700000000001 10.193899999999999
330 2 7.6416899999999996 23.641999999999999 27.593800000000002
331 2 47.495800000000003 12.393599999999999 35.895000000000003
332 2 5.7938999999999998 1.6100300000000001 44.566699999999997
333 2 31.003699999999998 45.935099999999998 37.726500000000001
334 2 14.360900000000001 29.4541 4.4914699999999996
335 2 27.498799999999999 45.419499999999999 25.027699999999999
336 2 21.338799999999999 3.1703199999999998 36.780099999999997
337 2 4.94367 34.021799999999999 42.476599999999998
338 2 3.1504799999999999 31.489699999999999 13.945399999999999
339 2 44.286700000000003 45.4983 15.2963
340 2 39.995800000000003 10.480600000000001 47.644300000000001
341 2 31.322900000000001 23.441099999999999 13.1942
342 2 31.369900000000001 15.298400000000001 12.513
343 2 6.9052100000000003 10.904 22.685500000000001
344 2 32.8874 38.036000000000001 45.971499999999999
345 2 17.348400000000002 39.579300000000003 42.061199999999999
346 2 2.2438500000000001 16.272500000000001 43.9148
347 2 42.755800000000001 32.484499999999997 33.771099999999997
348 2 49.436500000000002 3.3805399999999999 32.2286
349 2 26.959900000000001 48.845700000000001 11.1515
350 2 46.0015 37.442599999999999 8.1387999999999998
351 2 45.026899999999998 14.642899999999999 15.543200000000001
352 2 45.065100000000001 10.9808 42.186199999999999
353 2 29.447800000000001 2.6248499999999999 23.734100000000002
354 2 11.980499999999999 33.4422 32.843400000000003
355 2 44.730899999999998 37.391500000000001 0.76700299999999999
356 2 14.842700000000001 11.9933 20.945499999999999
357 2 19.878799999999998 1.0484599999999999 46.642200000000003
358 2 35.790799999999997 25.216899999999999 35.764000000000003
359 2 13.575799999999999 6.79115 12.598699999999999
360 2 1.81125 29.666799999999999 0.059008699999999997
361 2 32.850099999999998 40.466900000000003 19.7591
362 2 36.566600000000001 40.2515 19.122299999999999
363 2 20.2897 34.078699999999998 42.425199999999997
364 2 27.349699999999999 4.2668299999999997 3.0031500000000002
365 2 3.2546400000000002 32.046999999999997 40.632599999999996
366 2 43.423000000000002 12.2263 17.378699999999998
367 2 40.095199999999998 6.4941000000000004 2.5129700000000001
368 2 31.331800000000001 1.0749899999999999 18.081700000000001
369 2 3.3252000000000002 9.1047399999999996 18.940300000000001
370 2 35.700800000000001 1.88846 13.7682
371 2 27.898199999999999 5.1294500000000003 37.267299999999999
372 2 6.6790000000000003 40.811599999999999 43.620399999999997
373 2 11.237299999999999 10.6509 44.017499999999998
374 2 1.1505000000000001 31.8736 6.8846499999999997
375 2 27.5945 35.924799999999998 13.5052
376 2 26.8858 44.580199999999998 35.4587
377 2 2.8277800000000002 48.446599999999997 38.833599999999997
378 2 41.849200000000003 48.504399999999997 43.703899999999997